# vtk DataFile Version 2.0
FlowField
ASCII
DATASET STRUCTURED_GRID
DIMENSIONS 102 13 1 
POINTS 1326 double
0 0 0
0.3 0 0
0.6 0 0
0.9 0 0
1.2 0 0
1.5 0 0
1.8 0 0
2.1 0 0
2.4 0 0
2.7 0 0
3 0 0
3.3 0 0
3.6 0 0
3.9 0 0
4.2 0 0
4.5 0 0
4.8 0 0
5.1 0 0
5.4 0 0
5.7 0 0
6 0 0
6.3 0 0
6.6 0 0
6.9 0 0
7.2 0 0
7.5 0 0
7.8 0 0
8.1 0 0
8.4 0 0
8.7 0 0
9 0 0
9.3 0 0
9.6 0 0
9.9 0 0
10.2 0 0
10.5 0 0
10.8 0 0
11.1 0 0
11.4 0 0
11.7 0 0
12 0 0
12.3 0 0
12.6 0 0
12.9 0 0
13.2 0 0
13.5 0 0
13.8 0 0
14.1 0 0
14.4 0 0
14.7 0 0
15 0 0
15.3 0 0
15.6 0 0
15.9 0 0
16.2 0 0
16.5 0 0
16.8 0 0
17.1 0 0
17.4 0 0
17.7 0 0
18 0 0
18.3 0 0
18.6 0 0
18.9 0 0
19.2 0 0
19.5 0 0
19.8 0 0
20.1 0 0
20.4 0 0
20.7 0 0
21 0 0
21.3 0 0
21.6 0 0
21.9 0 0
22.2 0 0
22.5 0 0
22.8 0 0
23.1 0 0
23.4 0 0
23.7 0 0
24 0 0
24.3 0 0
24.6 0 0
24.9 0 0
25.2 0 0
25.5 0 0
25.8 0 0
26.1 0 0
26.4 0 0
26.7 0 0
27 0 0
27.3 0 0
27.6 0 0
27.9 0 0
28.2 0 0
28.5 0 0
28.8 0 0
29.1 0 0
29.4 0 0
29.7 0 0
30 0 0
30.3 0 0
0 0.1 0
0.3 0.1 0
0.6 0.1 0
0.9 0.1 0
1.2 0.1 0
1.5 0.1 0
1.8 0.1 0
2.1 0.1 0
2.4 0.1 0
2.7 0.1 0
3 0.1 0
3.3 0.1 0
3.6 0.1 0
3.9 0.1 0
4.2 0.1 0
4.5 0.1 0
4.8 0.1 0
5.1 0.1 0
5.4 0.1 0
5.7 0.1 0
6 0.1 0
6.3 0.1 0
6.6 0.1 0
6.9 0.1 0
7.2 0.1 0
7.5 0.1 0
7.8 0.1 0
8.1 0.1 0
8.4 0.1 0
8.7 0.1 0
9 0.1 0
9.3 0.1 0
9.6 0.1 0
9.9 0.1 0
10.2 0.1 0
10.5 0.1 0
10.8 0.1 0
11.1 0.1 0
11.4 0.1 0
11.7 0.1 0
12 0.1 0
12.3 0.1 0
12.6 0.1 0
12.9 0.1 0
13.2 0.1 0
13.5 0.1 0
13.8 0.1 0
14.1 0.1 0
14.4 0.1 0
14.7 0.1 0
15 0.1 0
15.3 0.1 0
15.6 0.1 0
15.9 0.1 0
16.2 0.1 0
16.5 0.1 0
16.8 0.1 0
17.1 0.1 0
17.4 0.1 0
17.7 0.1 0
18 0.1 0
18.3 0.1 0
18.6 0.1 0
18.9 0.1 0
19.2 0.1 0
19.5 0.1 0
19.8 0.1 0
20.1 0.1 0
20.4 0.1 0
20.7 0.1 0
21 0.1 0
21.3 0.1 0
21.6 0.1 0
21.9 0.1 0
22.2 0.1 0
22.5 0.1 0
22.8 0.1 0
23.1 0.1 0
23.4 0.1 0
23.7 0.1 0
24 0.1 0
24.3 0.1 0
24.6 0.1 0
24.9 0.1 0
25.2 0.1 0
25.5 0.1 0
25.8 0.1 0
26.1 0.1 0
26.4 0.1 0
26.7 0.1 0
27 0.1 0
27.3 0.1 0
27.6 0.1 0
27.9 0.1 0
28.2 0.1 0
28.5 0.1 0
28.8 0.1 0
29.1 0.1 0
29.4 0.1 0
29.7 0.1 0
30 0.1 0
30.3 0.1 0
0 0.2 0
0.3 0.2 0
0.6 0.2 0
0.9 0.2 0
1.2 0.2 0
1.5 0.2 0
1.8 0.2 0
2.1 0.2 0
2.4 0.2 0
2.7 0.2 0
3 0.2 0
3.3 0.2 0
3.6 0.2 0
3.9 0.2 0
4.2 0.2 0
4.5 0.2 0
4.8 0.2 0
5.1 0.2 0
5.4 0.2 0
5.7 0.2 0
6 0.2 0
6.3 0.2 0
6.6 0.2 0
6.9 0.2 0
7.2 0.2 0
7.5 0.2 0
7.8 0.2 0
8.1 0.2 0
8.4 0.2 0
8.7 0.2 0
9 0.2 0
9.3 0.2 0
9.6 0.2 0
9.9 0.2 0
10.2 0.2 0
10.5 0.2 0
10.8 0.2 0
11.1 0.2 0
11.4 0.2 0
11.7 0.2 0
12 0.2 0
12.3 0.2 0
12.6 0.2 0
12.9 0.2 0
13.2 0.2 0
13.5 0.2 0
13.8 0.2 0
14.1 0.2 0
14.4 0.2 0
14.7 0.2 0
15 0.2 0
15.3 0.2 0
15.6 0.2 0
15.9 0.2 0
16.2 0.2 0
16.5 0.2 0
16.8 0.2 0
17.1 0.2 0
17.4 0.2 0
17.7 0.2 0
18 0.2 0
18.3 0.2 0
18.6 0.2 0
18.9 0.2 0
19.2 0.2 0
19.5 0.2 0
19.8 0.2 0
20.1 0.2 0
20.4 0.2 0
20.7 0.2 0
21 0.2 0
21.3 0.2 0
21.6 0.2 0
21.9 0.2 0
22.2 0.2 0
22.5 0.2 0
22.8 0.2 0
23.1 0.2 0
23.4 0.2 0
23.7 0.2 0
24 0.2 0
24.3 0.2 0
24.6 0.2 0
24.9 0.2 0
25.2 0.2 0
25.5 0.2 0
25.8 0.2 0
26.1 0.2 0
26.4 0.2 0
26.7 0.2 0
27 0.2 0
27.3 0.2 0
27.6 0.2 0
27.9 0.2 0
28.2 0.2 0
28.5 0.2 0
28.8 0.2 0
29.1 0.2 0
29.4 0.2 0
29.7 0.2 0
30 0.2 0
30.3 0.2 0
0 0.3 0
0.3 0.3 0
0.6 0.3 0
0.9 0.3 0
1.2 0.3 0
1.5 0.3 0
1.8 0.3 0
2.1 0.3 0
2.4 0.3 0
2.7 0.3 0
3 0.3 0
3.3 0.3 0
3.6 0.3 0
3.9 0.3 0
4.2 0.3 0
4.5 0.3 0
4.8 0.3 0
5.1 0.3 0
5.4 0.3 0
5.7 0.3 0
6 0.3 0
6.3 0.3 0
6.6 0.3 0
6.9 0.3 0
7.2 0.3 0
7.5 0.3 0
7.8 0.3 0
8.1 0.3 0
8.4 0.3 0
8.7 0.3 0
9 0.3 0
9.3 0.3 0
9.6 0.3 0
9.9 0.3 0
10.2 0.3 0
10.5 0.3 0
10.8 0.3 0
11.1 0.3 0
11.4 0.3 0
11.7 0.3 0
12 0.3 0
12.3 0.3 0
12.6 0.3 0
12.9 0.3 0
13.2 0.3 0
13.5 0.3 0
13.8 0.3 0
14.1 0.3 0
14.4 0.3 0
14.7 0.3 0
15 0.3 0
15.3 0.3 0
15.6 0.3 0
15.9 0.3 0
16.2 0.3 0
16.5 0.3 0
16.8 0.3 0
17.1 0.3 0
17.4 0.3 0
17.7 0.3 0
18 0.3 0
18.3 0.3 0
18.6 0.3 0
18.9 0.3 0
19.2 0.3 0
19.5 0.3 0
19.8 0.3 0
20.1 0.3 0
20.4 0.3 0
20.7 0.3 0
21 0.3 0
21.3 0.3 0
21.6 0.3 0
21.9 0.3 0
22.2 0.3 0
22.5 0.3 0
22.8 0.3 0
23.1 0.3 0
23.4 0.3 0
23.7 0.3 0
24 0.3 0
24.3 0.3 0
24.6 0.3 0
24.9 0.3 0
25.2 0.3 0
25.5 0.3 0
25.8 0.3 0
26.1 0.3 0
26.4 0.3 0
26.7 0.3 0
27 0.3 0
27.3 0.3 0
27.6 0.3 0
27.9 0.3 0
28.2 0.3 0
28.5 0.3 0
28.8 0.3 0
29.1 0.3 0
29.4 0.3 0
29.7 0.3 0
30 0.3 0
30.3 0.3 0
0 0.4 0
0.3 0.4 0
0.6 0.4 0
0.9 0.4 0
1.2 0.4 0
1.5 0.4 0
1.8 0.4 0
2.1 0.4 0
2.4 0.4 0
2.7 0.4 0
3 0.4 0
3.3 0.4 0
3.6 0.4 0
3.9 0.4 0
4.2 0.4 0
4.5 0.4 0
4.8 0.4 0
5.1 0.4 0
5.4 0.4 0
5.7 0.4 0
6 0.4 0
6.3 0.4 0
6.6 0.4 0
6.9 0.4 0
7.2 0.4 0
7.5 0.4 0
7.8 0.4 0
8.1 0.4 0
8.4 0.4 0
8.7 0.4 0
9 0.4 0
9.3 0.4 0
9.6 0.4 0
9.9 0.4 0
10.2 0.4 0
10.5 0.4 0
10.8 0.4 0
11.1 0.4 0
11.4 0.4 0
11.7 0.4 0
12 0.4 0
12.3 0.4 0
12.6 0.4 0
12.9 0.4 0
13.2 0.4 0
13.5 0.4 0
13.8 0.4 0
14.1 0.4 0
14.4 0.4 0
14.7 0.4 0
15 0.4 0
15.3 0.4 0
15.6 0.4 0
15.9 0.4 0
16.2 0.4 0
16.5 0.4 0
16.8 0.4 0
17.1 0.4 0
17.4 0.4 0
17.7 0.4 0
18 0.4 0
18.3 0.4 0
18.6 0.4 0
18.9 0.4 0
19.2 0.4 0
19.5 0.4 0
19.8 0.4 0
20.1 0.4 0
20.4 0.4 0
20.7 0.4 0
21 0.4 0
21.3 0.4 0
21.6 0.4 0
21.9 0.4 0
22.2 0.4 0
22.5 0.4 0
22.8 0.4 0
23.1 0.4 0
23.4 0.4 0
23.7 0.4 0
24 0.4 0
24.3 0.4 0
24.6 0.4 0
24.9 0.4 0
25.2 0.4 0
25.5 0.4 0
25.8 0.4 0
26.1 0.4 0
26.4 0.4 0
26.7 0.4 0
27 0.4 0
27.3 0.4 0
27.6 0.4 0
27.9 0.4 0
28.2 0.4 0
28.5 0.4 0
28.8 0.4 0
29.1 0.4 0
29.4 0.4 0
29.7 0.4 0
30 0.4 0
30.3 0.4 0
0 0.5 0
0.3 0.5 0
0.6 0.5 0
0.9 0.5 0
1.2 0.5 0
1.5 0.5 0
1.8 0.5 0
2.1 0.5 0
2.4 0.5 0
2.7 0.5 0
3 0.5 0
3.3 0.5 0
3.6 0.5 0
3.9 0.5 0
4.2 0.5 0
4.5 0.5 0
4.8 0.5 0
5.1 0.5 0
5.4 0.5 0
5.7 0.5 0
6 0.5 0
6.3 0.5 0
6.6 0.5 0
6.9 0.5 0
7.2 0.5 0
7.5 0.5 0
7.8 0.5 0
8.1 0.5 0
8.4 0.5 0
8.7 0.5 0
9 0.5 0
9.3 0.5 0
9.6 0.5 0
9.9 0.5 0
10.2 0.5 0
10.5 0.5 0
10.8 0.5 0
11.1 0.5 0
11.4 0.5 0
11.7 0.5 0
12 0.5 0
12.3 0.5 0
12.6 0.5 0
12.9 0.5 0
13.2 0.5 0
13.5 0.5 0
13.8 0.5 0
14.1 0.5 0
14.4 0.5 0
14.7 0.5 0
15 0.5 0
15.3 0.5 0
15.6 0.5 0
15.9 0.5 0
16.2 0.5 0
16.5 0.5 0
16.8 0.5 0
17.1 0.5 0
17.4 0.5 0
17.7 0.5 0
18 0.5 0
18.3 0.5 0
18.6 0.5 0
18.9 0.5 0
19.2 0.5 0
19.5 0.5 0
19.8 0.5 0
20.1 0.5 0
20.4 0.5 0
20.7 0.5 0
21 0.5 0
21.3 0.5 0
21.6 0.5 0
21.9 0.5 0
22.2 0.5 0
22.5 0.5 0
22.8 0.5 0
23.1 0.5 0
23.4 0.5 0
23.7 0.5 0
24 0.5 0
24.3 0.5 0
24.6 0.5 0
24.9 0.5 0
25.2 0.5 0
25.5 0.5 0
25.8 0.5 0
26.1 0.5 0
26.4 0.5 0
26.7 0.5 0
27 0.5 0
27.3 0.5 0
27.6 0.5 0
27.9 0.5 0
28.2 0.5 0
28.5 0.5 0
28.8 0.5 0
29.1 0.5 0
29.4 0.5 0
29.7 0.5 0
30 0.5 0
30.3 0.5 0
0 0.6 0
0.3 0.6 0
0.6 0.6 0
0.9 0.6 0
1.2 0.6 0
1.5 0.6 0
1.8 0.6 0
2.1 0.6 0
2.4 0.6 0
2.7 0.6 0
3 0.6 0
3.3 0.6 0
3.6 0.6 0
3.9 0.6 0
4.2 0.6 0
4.5 0.6 0
4.8 0.6 0
5.1 0.6 0
5.4 0.6 0
5.7 0.6 0
6 0.6 0
6.3 0.6 0
6.6 0.6 0
6.9 0.6 0
7.2 0.6 0
7.5 0.6 0
7.8 0.6 0
8.1 0.6 0
8.4 0.6 0
8.7 0.6 0
9 0.6 0
9.3 0.6 0
9.6 0.6 0
9.9 0.6 0
10.2 0.6 0
10.5 0.6 0
10.8 0.6 0
11.1 0.6 0
11.4 0.6 0
11.7 0.6 0
12 0.6 0
12.3 0.6 0
12.6 0.6 0
12.9 0.6 0
13.2 0.6 0
13.5 0.6 0
13.8 0.6 0
14.1 0.6 0
14.4 0.6 0
14.7 0.6 0
15 0.6 0
15.3 0.6 0
15.6 0.6 0
15.9 0.6 0
16.2 0.6 0
16.5 0.6 0
16.8 0.6 0
17.1 0.6 0
17.4 0.6 0
17.7 0.6 0
18 0.6 0
18.3 0.6 0
18.6 0.6 0
18.9 0.6 0
19.2 0.6 0
19.5 0.6 0
19.8 0.6 0
20.1 0.6 0
20.4 0.6 0
20.7 0.6 0
21 0.6 0
21.3 0.6 0
21.6 0.6 0
21.9 0.6 0
22.2 0.6 0
22.5 0.6 0
22.8 0.6 0
23.1 0.6 0
23.4 0.6 0
23.7 0.6 0
24 0.6 0
24.3 0.6 0
24.6 0.6 0
24.9 0.6 0
25.2 0.6 0
25.5 0.6 0
25.8 0.6 0
26.1 0.6 0
26.4 0.6 0
26.7 0.6 0
27 0.6 0
27.3 0.6 0
27.6 0.6 0
27.9 0.6 0
28.2 0.6 0
28.5 0.6 0
28.8 0.6 0
29.1 0.6 0
29.4 0.6 0
29.7 0.6 0
30 0.6 0
30.3 0.6 0
0 0.7 0
0.3 0.7 0
0.6 0.7 0
0.9 0.7 0
1.2 0.7 0
1.5 0.7 0
1.8 0.7 0
2.1 0.7 0
2.4 0.7 0
2.7 0.7 0
3 0.7 0
3.3 0.7 0
3.6 0.7 0
3.9 0.7 0
4.2 0.7 0
4.5 0.7 0
4.8 0.7 0
5.1 0.7 0
5.4 0.7 0
5.7 0.7 0
6 0.7 0
6.3 0.7 0
6.6 0.7 0
6.9 0.7 0
7.2 0.7 0
7.5 0.7 0
7.8 0.7 0
8.1 0.7 0
8.4 0.7 0
8.7 0.7 0
9 0.7 0
9.3 0.7 0
9.6 0.7 0
9.9 0.7 0
10.2 0.7 0
10.5 0.7 0
10.8 0.7 0
11.1 0.7 0
11.4 0.7 0
11.7 0.7 0
12 0.7 0
12.3 0.7 0
12.6 0.7 0
12.9 0.7 0
13.2 0.7 0
13.5 0.7 0
13.8 0.7 0
14.1 0.7 0
14.4 0.7 0
14.7 0.7 0
15 0.7 0
15.3 0.7 0
15.6 0.7 0
15.9 0.7 0
16.2 0.7 0
16.5 0.7 0
16.8 0.7 0
17.1 0.7 0
17.4 0.7 0
17.7 0.7 0
18 0.7 0
18.3 0.7 0
18.6 0.7 0
18.9 0.7 0
19.2 0.7 0
19.5 0.7 0
19.8 0.7 0
20.1 0.7 0
20.4 0.7 0
20.7 0.7 0
21 0.7 0
21.3 0.7 0
21.6 0.7 0
21.9 0.7 0
22.2 0.7 0
22.5 0.7 0
22.8 0.7 0
23.1 0.7 0
23.4 0.7 0
23.7 0.7 0
24 0.7 0
24.3 0.7 0
24.6 0.7 0
24.9 0.7 0
25.2 0.7 0
25.5 0.7 0
25.8 0.7 0
26.1 0.7 0
26.4 0.7 0
26.7 0.7 0
27 0.7 0
27.3 0.7 0
27.6 0.7 0
27.9 0.7 0
28.2 0.7 0
28.5 0.7 0
28.8 0.7 0
29.1 0.7 0
29.4 0.7 0
29.7 0.7 0
30 0.7 0
30.3 0.7 0
0 0.8 0
0.3 0.8 0
0.6 0.8 0
0.9 0.8 0
1.2 0.8 0
1.5 0.8 0
1.8 0.8 0
2.1 0.8 0
2.4 0.8 0
2.7 0.8 0
3 0.8 0
3.3 0.8 0
3.6 0.8 0
3.9 0.8 0
4.2 0.8 0
4.5 0.8 0
4.8 0.8 0
5.1 0.8 0
5.4 0.8 0
5.7 0.8 0
6 0.8 0
6.3 0.8 0
6.6 0.8 0
6.9 0.8 0
7.2 0.8 0
7.5 0.8 0
7.8 0.8 0
8.1 0.8 0
8.4 0.8 0
8.7 0.8 0
9 0.8 0
9.3 0.8 0
9.6 0.8 0
9.9 0.8 0
10.2 0.8 0
10.5 0.8 0
10.8 0.8 0
11.1 0.8 0
11.4 0.8 0
11.7 0.8 0
12 0.8 0
12.3 0.8 0
12.6 0.8 0
12.9 0.8 0
13.2 0.8 0
13.5 0.8 0
13.8 0.8 0
14.1 0.8 0
14.4 0.8 0
14.7 0.8 0
15 0.8 0
15.3 0.8 0
15.6 0.8 0
15.9 0.8 0
16.2 0.8 0
16.5 0.8 0
16.8 0.8 0
17.1 0.8 0
17.4 0.8 0
17.7 0.8 0
18 0.8 0
18.3 0.8 0
18.6 0.8 0
18.9 0.8 0
19.2 0.8 0
19.5 0.8 0
19.8 0.8 0
20.1 0.8 0
20.4 0.8 0
20.7 0.8 0
21 0.8 0
21.3 0.8 0
21.6 0.8 0
21.9 0.8 0
22.2 0.8 0
22.5 0.8 0
22.8 0.8 0
23.1 0.8 0
23.4 0.8 0
23.7 0.8 0
24 0.8 0
24.3 0.8 0
24.6 0.8 0
24.9 0.8 0
25.2 0.8 0
25.5 0.8 0
25.8 0.8 0
26.1 0.8 0
26.4 0.8 0
26.7 0.8 0
27 0.8 0
27.3 0.8 0
27.6 0.8 0
27.9 0.8 0
28.2 0.8 0
28.5 0.8 0
28.8 0.8 0
29.1 0.8 0
29.4 0.8 0
29.7 0.8 0
30 0.8 0
30.3 0.8 0
0 0.9 0
0.3 0.9 0
0.6 0.9 0
0.9 0.9 0
1.2 0.9 0
1.5 0.9 0
1.8 0.9 0
2.1 0.9 0
2.4 0.9 0
2.7 0.9 0
3 0.9 0
3.3 0.9 0
3.6 0.9 0
3.9 0.9 0
4.2 0.9 0
4.5 0.9 0
4.8 0.9 0
5.1 0.9 0
5.4 0.9 0
5.7 0.9 0
6 0.9 0
6.3 0.9 0
6.6 0.9 0
6.9 0.9 0
7.2 0.9 0
7.5 0.9 0
7.8 0.9 0
8.1 0.9 0
8.4 0.9 0
8.7 0.9 0
9 0.9 0
9.3 0.9 0
9.6 0.9 0
9.9 0.9 0
10.2 0.9 0
10.5 0.9 0
10.8 0.9 0
11.1 0.9 0
11.4 0.9 0
11.7 0.9 0
12 0.9 0
12.3 0.9 0
12.6 0.9 0
12.9 0.9 0
13.2 0.9 0
13.5 0.9 0
13.8 0.9 0
14.1 0.9 0
14.4 0.9 0
14.7 0.9 0
15 0.9 0
15.3 0.9 0
15.6 0.9 0
15.9 0.9 0
16.2 0.9 0
16.5 0.9 0
16.8 0.9 0
17.1 0.9 0
17.4 0.9 0
17.7 0.9 0
18 0.9 0
18.3 0.9 0
18.6 0.9 0
18.9 0.9 0
19.2 0.9 0
19.5 0.9 0
19.8 0.9 0
20.1 0.9 0
20.4 0.9 0
20.7 0.9 0
21 0.9 0
21.3 0.9 0
21.6 0.9 0
21.9 0.9 0
22.2 0.9 0
22.5 0.9 0
22.8 0.9 0
23.1 0.9 0
23.4 0.9 0
23.7 0.9 0
24 0.9 0
24.3 0.9 0
24.6 0.9 0
24.9 0.9 0
25.2 0.9 0
25.5 0.9 0
25.8 0.9 0
26.1 0.9 0
26.4 0.9 0
26.7 0.9 0
27 0.9 0
27.3 0.9 0
27.6 0.9 0
27.9 0.9 0
28.2 0.9 0
28.5 0.9 0
28.8 0.9 0
29.1 0.9 0
29.4 0.9 0
29.7 0.9 0
30 0.9 0
30.3 0.9 0
0 1 0
0.3 1 0
0.6 1 0
0.9 1 0
1.2 1 0
1.5 1 0
1.8 1 0
2.1 1 0
2.4 1 0
2.7 1 0
3 1 0
3.3 1 0
3.6 1 0
3.9 1 0
4.2 1 0
4.5 1 0
4.8 1 0
5.1 1 0
5.4 1 0
5.7 1 0
6 1 0
6.3 1 0
6.6 1 0
6.9 1 0
7.2 1 0
7.5 1 0
7.8 1 0
8.1 1 0
8.4 1 0
8.7 1 0
9 1 0
9.3 1 0
9.6 1 0
9.9 1 0
10.2 1 0
10.5 1 0
10.8 1 0
11.1 1 0
11.4 1 0
11.7 1 0
12 1 0
12.3 1 0
12.6 1 0
12.9 1 0
13.2 1 0
13.5 1 0
13.8 1 0
14.1 1 0
14.4 1 0
14.7 1 0
15 1 0
15.3 1 0
15.6 1 0
15.9 1 0
16.2 1 0
16.5 1 0
16.8 1 0
17.1 1 0
17.4 1 0
17.7 1 0
18 1 0
18.3 1 0
18.6 1 0
18.9 1 0
19.2 1 0
19.5 1 0
19.8 1 0
20.1 1 0
20.4 1 0
20.7 1 0
21 1 0
21.3 1 0
21.6 1 0
21.9 1 0
22.2 1 0
22.5 1 0
22.8 1 0
23.1 1 0
23.4 1 0
23.7 1 0
24 1 0
24.3 1 0
24.6 1 0
24.9 1 0
25.2 1 0
25.5 1 0
25.8 1 0
26.1 1 0
26.4 1 0
26.7 1 0
27 1 0
27.3 1 0
27.6 1 0
27.9 1 0
28.2 1 0
28.5 1 0
28.8 1 0
29.1 1 0
29.4 1 0
29.7 1 0
30 1 0
30.3 1 0
0 1.1 0
0.3 1.1 0
0.6 1.1 0
0.9 1.1 0
1.2 1.1 0
1.5 1.1 0
1.8 1.1 0
2.1 1.1 0
2.4 1.1 0
2.7 1.1 0
3 1.1 0
3.3 1.1 0
3.6 1.1 0
3.9 1.1 0
4.2 1.1 0
4.5 1.1 0
4.8 1.1 0
5.1 1.1 0
5.4 1.1 0
5.7 1.1 0
6 1.1 0
6.3 1.1 0
6.6 1.1 0
6.9 1.1 0
7.2 1.1 0
7.5 1.1 0
7.8 1.1 0
8.1 1.1 0
8.4 1.1 0
8.7 1.1 0
9 1.1 0
9.3 1.1 0
9.6 1.1 0
9.9 1.1 0
10.2 1.1 0
10.5 1.1 0
10.8 1.1 0
11.1 1.1 0
11.4 1.1 0
11.7 1.1 0
12 1.1 0
12.3 1.1 0
12.6 1.1 0
12.9 1.1 0
13.2 1.1 0
13.5 1.1 0
13.8 1.1 0
14.1 1.1 0
14.4 1.1 0
14.7 1.1 0
15 1.1 0
15.3 1.1 0
15.6 1.1 0
15.9 1.1 0
16.2 1.1 0
16.5 1.1 0
16.8 1.1 0
17.1 1.1 0
17.4 1.1 0
17.7 1.1 0
18 1.1 0
18.3 1.1 0
18.6 1.1 0
18.9 1.1 0
19.2 1.1 0
19.5 1.1 0
19.8 1.1 0
20.1 1.1 0
20.4 1.1 0
20.7 1.1 0
21 1.1 0
21.3 1.1 0
21.6 1.1 0
21.9 1.1 0
22.2 1.1 0
22.5 1.1 0
22.8 1.1 0
23.1 1.1 0
23.4 1.1 0
23.7 1.1 0
24 1.1 0
24.3 1.1 0
24.6 1.1 0
24.9 1.1 0
25.2 1.1 0
25.5 1.1 0
25.8 1.1 0
26.1 1.1 0
26.4 1.1 0
26.7 1.1 0
27 1.1 0
27.3 1.1 0
27.6 1.1 0
27.9 1.1 0
28.2 1.1 0
28.5 1.1 0
28.8 1.1 0
29.1 1.1 0
29.4 1.1 0
29.7 1.1 0
30 1.1 0
30.3 1.1 0
0 1.2 0
0.3 1.2 0
0.6 1.2 0
0.9 1.2 0
1.2 1.2 0
1.5 1.2 0
1.8 1.2 0
2.1 1.2 0
2.4 1.2 0
2.7 1.2 0
3 1.2 0
3.3 1.2 0
3.6 1.2 0
3.9 1.2 0
4.2 1.2 0
4.5 1.2 0
4.8 1.2 0
5.1 1.2 0
5.4 1.2 0
5.7 1.2 0
6 1.2 0
6.3 1.2 0
6.6 1.2 0
6.9 1.2 0
7.2 1.2 0
7.5 1.2 0
7.8 1.2 0
8.1 1.2 0
8.4 1.2 0
8.7 1.2 0
9 1.2 0
9.3 1.2 0
9.6 1.2 0
9.9 1.2 0
10.2 1.2 0
10.5 1.2 0
10.8 1.2 0
11.1 1.2 0
11.4 1.2 0
11.7 1.2 0
12 1.2 0
12.3 1.2 0
12.6 1.2 0
12.9 1.2 0
13.2 1.2 0
13.5 1.2 0
13.8 1.2 0
14.1 1.2 0
14.4 1.2 0
14.7 1.2 0
15 1.2 0
15.3 1.2 0
15.6 1.2 0
15.9 1.2 0
16.2 1.2 0
16.5 1.2 0
16.8 1.2 0
17.1 1.2 0
17.4 1.2 0
17.7 1.2 0
18 1.2 0
18.3 1.2 0
18.6 1.2 0
18.9 1.2 0
19.2 1.2 0
19.5 1.2 0
19.8 1.2 0
20.1 1.2 0
20.4 1.2 0
20.7 1.2 0
21 1.2 0
21.3 1.2 0
21.6 1.2 0
21.9 1.2 0
22.2 1.2 0
22.5 1.2 0
22.8 1.2 0
23.1 1.2 0
23.4 1.2 0
23.7 1.2 0
24 1.2 0
24.3 1.2 0
24.6 1.2 0
24.9 1.2 0
25.2 1.2 0
25.5 1.2 0
25.8 1.2 0
26.1 1.2 0
26.4 1.2 0
26.7 1.2 0
27 1.2 0
27.3 1.2 0
27.6 1.2 0
27.9 1.2 0
28.2 1.2 0
28.5 1.2 0
28.8 1.2 0
29.1 1.2 0
29.4 1.2 0
29.7 1.2 0
30 1.2 0
30.3 1.2 0

POINT_DATA 1326

SCALARS v double
LOOKUP_TABLE default
0
0
0
0
0
0
0
0
0
0
0
0
0
0
0
0
0
0
0
0
0
0
0
0
0
0
0
0
0
0
0
0
0
0
0
0
0
0
0
0
0
0
0
0
0
0
0
0
0
0
0
0
0
0
0
0
0
0
0
0
0
0
0
0
0
0
0
0
0
0
0
0
0
0
0
0
0
0
0
0
0
0
0
0
0
0
0
0
0
0
0
0
0
0
0
0
0
0
0
0
0
0
-0.0370799
0.0370799
0.0391133
0.0336313
0.0272525
0.0213215
0.0162806
0.0122495
0.00917276
0.00690403
0.00526869
0.00410323
0.0032733
0.00267721
0.00224198
0.00191689
0.00166728
0.00146939
0.00130668
0.00116719
0.00104212
0.000925136
0.000812252
0.00070178
0.000594098
0.000491098
0.000395412
0.000309608
0.000235567
0.000174147
0.000125154
8.75309e-05
5.96694e-05
3.97294e-05
2.59022e-05
1.65843e-05
1.04615e-05
6.52393e-06
4.03564e-06
2.48424e-06
1.52619e-06
9.38197e-07
5.7859e-07
3.59075e-07
2.2525e-07
1.43799e-07
9.43577e-08
6.44599e-08
4.64619e-08
3.56689e-08
2.91975e-08
2.52873e-08
2.28767e-08
2.133e-08
2.02675e-08
1.94661e-08
1.87999e-08
1.82006e-08
1.76322e-08
1.70765e-08
1.65246e-08
1.59722e-08
1.54177e-08
1.48606e-08
1.43009e-08
1.3739e-08
1.31751e-08
1.261e-08
1.2044e-08
1.14777e-08
1.09117e-08
1.03466e-08
9.78326e-09
9.22228e-09
8.66448e-09
8.11074e-09
7.56191e-09
7.01886e-09
6.48274e-09
5.9545e-09
5.43623e-09
4.92923e-09
4.43409e-09
3.95223e-09
3.48484e-09
3.02886e-09
2.58958e-09
2.15456e-09
1.77307e-09
1.28005e-09
1.11898e-09
-8.83831e-10
-5.31459e-10
-1.72007e-08
-9.12044e-09
-1.91078e-07
-1.47043e-07
-1.8313e-06
-3.02381e-06
-2.95368e-06
-2.19609e-05
-2.19609e-05
-0.0282545
0.0282545
0.0387411
0.0375699
0.0331778
0.0280244
0.0230972
0.0188235
0.0153293
0.0125738
0.0104408
0.00879732
0.00752349
0.00652324
0.00572427
0.00507378
0.00453319
0.00407356
0.00367203
0.00330988
0.00297176
0.00264614
0.00232614
0.00201
0.00170077
0.00140492
0.00113042
0.000884628
0.000672796
0.00049722
0.000357228
0.000249744
0.000170152
0.000113195
7.37104e-05
4.7117e-05
2.96581e-05
1.84439e-05
1.13682e-05
6.96482e-06
4.25119e-06
2.58953e-06
1.57586e-06
9.58821e-07
5.8388e-07
3.56583e-07
2.19305e-07
1.36852e-07
8.76899e-08
5.86257e-08
4.15828e-08
3.16456e-08
2.5857e-08
2.24534e-08
2.03878e-08
1.90483e-08
1.8091e-08
1.73291e-08
1.66641e-08
1.60454e-08
1.54474e-08
1.48581e-08
1.42717e-08
1.36858e-08
1.30995e-08
1.25127e-08
1.19258e-08
1.1339e-08
1.07531e-08
1.01686e-08
9.58627e-09
9.00682e-09
8.4311e-09
7.86e-09
7.29444e-09
6.73539e-09
6.1837e-09
5.64012e-09
5.10604e-09
4.5822e-09
4.07129e-09
3.57457e-09
3.09118e-09
2.62083e-09
2.16154e-09
1.71011e-09
1.2728e-09
8.39243e-10
4.40341e-10
-1.88655e-10
-5.50453e-10
-3.37794e-09
-2.62757e-09
-3.13073e-08
-1.85086e-08
-3.47198e-07
-2.20677e-07
-3.78506e-06
-3.46273e-06
-3.40782e-05
-6.33628e-05
-6.33628e-05
-0.0177598
0.0177598
0.0281239
0.029097
0.0269196
0.0237001
0.0203368
0.0172614
0.0146483
0.01252
0.0108216
0.00947155
0.00838998
0.00751013
0.00678079
0.00616399
0.00563139
0.00516089
0.00473395
0.00433427
0.00394771
0.00356337
0.00317496
0.00278178
0.00238864
0.00200458
0.00164071
0.00130782
0.0010144
0.000765392
0.000561903
0.000401638
0.00027983
0.000190339
0.000126652
8.2639e-05
5.3018e-05
3.35405e-05
2.09825e-05
1.30142e-05
8.02013e-06
4.91839e-06
3.00424e-06
1.82842e-06
1.1089e-06
6.70396e-07
4.04504e-07
2.44354e-07
1.4871e-07
9.21677e-08
5.91034e-08
3.99683e-08
2.89964e-08
2.27374e-08
1.91373e-08
1.69915e-08
1.56197e-08
1.46499e-08
1.3884e-08
1.32194e-08
1.2604e-08
1.20123e-08
1.1432e-08
1.08575e-08
1.02866e-08
9.71826e-09
9.15257e-09
8.58981e-09
8.03048e-09
7.47524e-09
6.92483e-09
6.38009e-09
5.84191e-09
5.31126e-09
4.78915e-09
4.27659e-09
3.77444e-09
3.28324e-09
2.8047e-09
2.33964e-09
1.89022e-09
1.45691e-09
1.03866e-09
6.34818e-10
2.23173e-10
-2.02212e-10
-5.94804e-10
-9.75347e-10
-1.29884e-09
-1.81044e-09
-1.96096e-09
-4.96013e-09
-3.27789e-09
-3.61747e-08
-1.20327e-08
-4.01236e-07
-1.03578e-07
-4.66502e-06
-1.87771e-06
-5.62723e-05
-8.80084e-05
-8.80084e-05
-0.00966198
0.00966198
0.0165164
0.017616
0.0166491
0.0149527
0.0130936
0.0113492
0.00984102
0.00859625
0.00759149
0.00678376
0.0061285
0.00558772
0.00513194
0.00473922
0.00439306
0.00408028
0.00378947
0.00351012
0.00323281
0.00295013
0.00265785
0.00235581
0.00204806
0.00174199
0.00144684
0.00117189
0.000924917
0.000711099
0.000532631
0.000388894
0.000277055
0.000192853
0.000131394
8.78062e-05
5.76908e-05
3.73599e-05
2.39055e-05
1.51481e-05
9.52327e-06
5.94767e-06
3.69271e-06
2.27959e-06
1.39899e-06
8.53397e-07
5.17629e-07
3.12669e-07
1.88786e-07
1.14767e-07
7.10846e-08
4.56179e-08
3.09539e-08
2.26031e-08
1.78554e-08
1.50972e-08
1.34077e-08
1.22787e-08
1.14371e-08
1.07402e-08
1.01156e-08
9.52709e-09
8.95733e-09
8.39822e-09
7.84622e-09
7.29999e-09
6.75923e-09
6.22416e-09
5.69528e-09
5.17324e-09
4.65881e-09
4.15284e-09
3.65626e-09
3.17009e-09
2.69536e-09
2.23313e-09
1.78431e-09
1.34914e-09
9.29393e-10
5.27721e-10
1.4042e-10
-2.37761e-10
-5.96597e-10
-9.41632e-10
-1.27499e-09
-1.58896e-09
-1.87568e-09
-2.15123e-09
-2.36335e-09
-2.73176e-09
-2.71451e-09
-5.07966e-09
-2.93159e-09
-2.97144e-08
-2.30048e-09
-3.2066e-07
1.10132e-08
-3.79226e-06
-5.71755e-07
-5.01816e-05
-7.54078e-05
-7.54078e-05
-0.00306442
0.00306442
0.00542175
0.00585227
0.00557291
0.00504145
0.00444946
0.00388987
0.00340395
0.00300179
0.00267651
0.00241449
0.00220133
0.00202468
0.00187492
0.00174489
0.0016292
0.0015235
0.00142396
0.00132699
0.00122929
0.00112825
0.00102238
0.000911666
0.000797633
0.00068309
0.000571576
0.000466708
0.000371592
0.000288412
0.000218245
0.000161097
0.000116103
8.18062e-05
5.64472e-05
3.82196e-05
2.54504e-05
1.67071e-05
1.08374e-05
6.96119e-06
4.4355e-06
2.80706e-06
1.76584e-06
1.10463e-06
6.87341e-07
4.2567e-07
2.62776e-07
1.62249e-07
1.0085e-07
6.38006e-08
4.17052e-08
2.86471e-08
2.10009e-08
1.6564e-08
1.39717e-08
1.23796e-08
1.13095e-08
1.05033e-08
9.82686e-09
9.21353e-09
8.63134e-09
8.06565e-09
7.51008e-09
6.9621e-09
6.42092e-09
5.88654e-09
5.35935e-09
4.8399e-09
4.32884e-09
3.82692e-09
3.33497e-09
2.85386e-09
2.38455e-09
1.92806e-09
1.48545e-09
1.05788e-09
6.46164e-10
2.50624e-10
-1.28596e-10
-4.88648e-10
-8.27818e-10
-1.14555e-09
-1.44489e-09
-1.72932e-09
-1.99634e-09
-2.23799e-09
-2.44912e-09
-2.63582e-09
-2.77072e-09
-2.94939e-09
-2.92004e-09
-3.81689e-09
-2.7081e-09
-1.3077e-08
-4.25608e-10
-1.23932e-07
2.28567e-08
-1.45003e-06
-6.43617e-08
-1.96623e-05
-2.94299e-05
-2.94299e-05
0.00306439
-0.00306439
-0.00542168
-0.00585218
-0.00557281
-0.00504135
-0.00444936
-0.00388976
-0.00340386
-0.00300169
-0.00267642
-0.0024144
-0.00220124
-0.00202459
-0.00187484
-0.00174482
-0.00162913
-0.00152344
-0.00142391
-0.00132694
-0.00122925
-0.00112821
-0.00102235
-0.000911628
-0.000797595
-0.000683054
-0.000571541
-0.000466675
-0.000371562
-0.000288384
-0.000218218
-0.000161071
-0.000116078
-8.17801e-05
-5.64196e-05
-3.81899e-05
-2.54186e-05
-1.66736e-05
-1.08029e-05
-6.92646e-06
-4.40111e-06
-2.7734e-06
-1.73312e-06
-1.07295e-06
-6.56763e-07
-3.96216e-07
-2.34436e-07
-1.3496e-07
-7.4491e-08
-3.81924e-08
-1.67509e-08
-4.36e-09
2.60399e-09
6.35705e-09
8.26814e-09
9.09833e-09
9.30388e-09
9.15546e-09
8.811e-09
8.36151e-09
7.85855e-09
7.33077e-09
6.79377e-09
6.25594e-09
5.72184e-09
5.19403e-09
4.6741e-09
4.16319e-09
3.66224e-09
3.17211e-09
2.69369e-09
2.22787e-09
1.77561e-09
1.33792e-09
9.15897e-10
5.10799e-10
1.23426e-10
-2.4431e-10
-5.91247e-10
-9.17224e-10
-1.22084e-09
-1.50167e-09
-1.76169e-09
-2.00291e-09
-2.22237e-09
-2.4125e-09
-2.57112e-09
-2.68897e-09
-2.77969e-09
-2.75631e-09
-2.83187e-09
-1.87467e-09
-2.77198e-09
7.92783e-09
-4.35009e-09
1.19532e-07
-2.68691e-08
1.44643e-06
6.13165e-08
1.96598e-05
2.94288e-05
2.94288e-05
0.00966195
-0.00966195
-0.0165163
-0.0176159
-0.016649
-0.0149526
-0.0130935
-0.0113491
-0.00984092
-0.00859616
-0.00759141
-0.00678367
-0.00612841
-0.00558764
-0.00513187
-0.00473915
-0.00439299
-0.00408023
-0.00378942
-0.00351007
-0.00323277
-0.00295009
-0.00265781
-0.00235577
-0.00204802
-0.00174196
-0.0014468
-0.00117186
-0.000924886
-0.00071107
-0.000532603
-0.000388867
-0.000277028
-0.000192825
-0.000131364
-8.77742e-05
-5.76567e-05
-3.73241e-05
-2.38686e-05
-1.5111e-05
-9.48666e-06
-5.9119e-06
-3.65798e-06
-2.246e-06
-1.3666e-06
-8.22236e-07
-4.87683e-07
-2.83876e-07
-1.61008e-07
-8.77725e-08
-4.4734e-08
-1.99014e-08
-5.81778e-09
1.94051e-09
5.89186e-09
7.72071e-09
8.40732e-09
8.48816e-09
8.2529e-09
7.85668e-09
7.38173e-09
6.87109e-09
6.34695e-09
5.82069e-09
5.29817e-09
4.7825e-09
4.27553e-09
3.77847e-09
3.29228e-09
2.81784e-09
2.35598e-09
1.90757e-09
1.47353e-09
1.05482e-09
6.52546e-10
2.67964e-10
-9.50926e-11
-4.36823e-10
-7.57152e-10
-1.05586e-09
-1.33137e-09
-1.58396e-09
-1.81414e-09
-2.02272e-09
-2.20689e-09
-2.35942e-09
-2.48102e-09
-2.54998e-09
-2.61321e-09
-2.43895e-09
-2.5926e-09
-2.32436e-10
-2.21796e-09
2.48758e-08
-2.18971e-09
3.16515e-07
-1.48034e-08
3.78885e-06
5.68864e-07
5.01792e-05
7.54067e-05
7.54067e-05
0.0177597
-0.0177597
-0.0281239
-0.0290969
-0.0269195
-0.0237
-0.0203367
-0.0172613
-0.0146482
-0.0125199
-0.0108215
-0.00947148
-0.0083899
-0.00751006
-0.00678073
-0.00616392
-0.00563133
-0.00516084
-0.0047339
-0.00433422
-0.00394767
-0.00356334
-0.00317492
-0.00278174
-0.00238861
-0.00200455
-0.00164067
-0.00130779
-0.00101437
-0.00076536
-0.000561872
-0.000401606
-0.000279798
-0.000190306
-0.000126617
-8.26022e-05
-5.29792e-05
-3.35003e-05
-2.09416e-05
-1.29734e-05
-7.97997e-06
-4.87921e-06
-2.96621e-06
-1.79159e-06
-1.07331e-06
-6.36051e-07
-3.71422e-07
-2.12509e-07
-1.17971e-07
-6.22086e-08
-2.9696e-08
-1.10864e-08
-6.03962e-10
4.80503e-09
7.33514e-09
8.36184e-09
8.61491e-09
8.47341e-09
8.13316e-09
7.69537e-09
7.21221e-09
6.71044e-09
6.20365e-09
5.69876e-09
5.19939e-09
4.70755e-09
4.22449e-09
3.75113e-09
3.28825e-09
2.8366e-09
2.39691e-09
1.96996e-09
1.5566e-09
1.15773e-09
7.74428e-10
4.08015e-10
5.99146e-11
-2.60107e-10
-5.6066e-10
-8.40766e-10
-1.09896e-09
-1.33536e-09
-1.54915e-09
-1.74076e-09
-1.90788e-09
-2.04407e-09
-2.15187e-09
-2.20441e-09
-2.26183e-09
-2.03543e-09
-2.21768e-09
6.2925e-10
-9.40396e-10
3.21759e-08
8.28797e-09
3.97743e-07
1.00352e-07
4.66208e-06
1.8752e-06
5.62701e-05
8.80073e-05
8.80073e-05
0.0282544
-0.0282544
-0.038741
-0.0375699
-0.0331777
-0.0280243
-0.0230971
-0.0188234
-0.0153292
-0.0125738
-0.0104408
-0.00879726
-0.00752344
-0.00652318
-0.00572421
-0.00507373
-0.00453315
-0.00407351
-0.00367199
-0.00330984
-0.00297173
-0.00264611
-0.0023261
-0.00200996
-0.00170073
-0.00140488
-0.00113038
-0.000884588
-0.000672757
-0.000497182
-0.00035719
-0.000249705
-0.000170112
-0.000113155
-7.36689e-05
-4.70741e-05
-2.9614e-05
-1.83991e-05
-1.13234e-05
-6.92036e-06
-4.2075e-06
-2.54681e-06
-1.53413e-06
-9.18093e-07
-5.44132e-07
-3.17825e-07
-1.81587e-07
-1.00256e-07
-5.22281e-08
-2.39111e-08
-7.14316e-09
2.29012e-09
6.86451e-09
8.99721e-09
9.87411e-09
1.00761e-08
9.92823e-09
9.60244e-09
9.18777e-09
8.73017e-09
8.25341e-09
7.76974e-09
7.28549e-09
6.804e-09
6.32712e-09
5.85597e-09
5.39138e-09
4.93401e-09
4.48448e-09
4.04339e-09
3.61139e-09
3.18919e-09
2.77755e-09
2.37734e-09
1.98958e-09
1.61542e-09
1.25575e-09
9.09799e-10
5.8249e-10
2.74876e-10
-8.18179e-12
-2.55552e-10
-4.87291e-10
-7.01343e-10
-8.95447e-10
-1.06392e-09
-1.2101e-09
-1.30737e-09
-1.41349e-09
-1.26242e-09
-1.49598e-09
9.87543e-10
1.39137e-10
2.88422e-08
1.61101e-08
3.44877e-07
2.18458e-07
3.78298e-06
3.46091e-06
3.40767e-05
6.33619e-05
6.33619e-05
0.0370799
-0.0370799
-0.0391132
-0.0336312
-0.0272524
-0.0213215
-0.0162805
-0.0122494
-0.00917271
-0.00690398
-0.00526865
-0.00410319
-0.00327326
-0.00267717
-0.00224194
-0.00191685
-0.00166723
-0.00146935
-0.00130664
-0.00116715
-0.00104208
-0.000925092
-0.000812207
-0.000701735
-0.000594052
-0.000491052
-0.000395366
-0.000309562
-0.000235521
-0.000174102
-0.000125108
-8.74848e-05
-5.9623e-05
-3.96826e-05
-2.58551e-05
-1.65368e-05
-1.04139e-05
-6.47629e-06
-3.98825e-06
-2.43731e-06
-1.47983e-06
-8.92456e-07
-5.33474e-07
-3.14564e-07
-1.81321e-07
-1.00425e-07
-5.14936e-08
-2.20301e-08
-4.40263e-09
5.28005e-09
1.019e-08
1.27479e-08
1.39749e-08
1.44194e-08
1.44288e-08
1.41962e-08
1.38353e-08
1.34072e-08
1.29441e-08
1.24625e-08
1.19716e-08
1.14761e-08
1.09786e-08
1.04807e-08
9.98347e-09
9.48754e-09
8.99355e-09
8.50207e-09
8.01365e-09
7.52885e-09
7.04829e-09
6.57262e-09
6.10258e-09
5.63898e-09
5.18272e-09
4.73481e-09
4.29616e-09
3.86684e-09
3.44967e-09
3.04604e-09
2.6564e-09
2.2811e-09
1.925e-09
1.5879e-09
1.27084e-09
9.76405e-10
7.03916e-10
4.66013e-10
2.4263e-10
1.64696e-10
-3.12917e-11
1.209e-09
3.77897e-10
1.67464e-08
8.44681e-09
1.90233e-07
1.46079e-07
1.83027e-06
3.02281e-06
2.95281e-06
2.19602e-05
2.19602e-05
0
0
0
0
0
0
0
0
0
0
0
0
0
0
0
0
0
0
0
0
0
0
0
0
0
0
0
0
0
0
0
0
0
0
0
0
0
0
0
0
0
0
0
0
0
0
0
0
0
0
0
0
0
0
0
0
0
0
0
0
0
0
0
0
0
0
0
0
0
0
0
0
0
0
0
0
0
0
0
0
0
0
0
0
0
0
0
0
0
0
0
0
0
0
0
0
0
0
0
0
0
0
0
0
0
0
0
0
0
0
0
0
0
0
0
0
0
0
0
0
0
0
0
0
0
0
0
0
0
0
0
0
0
0
0
0
0
0
0
0
0
0
0
0
0
0
0
0
0
0
0
0
0
0
0
0
0
0
0
0
0
0
0
0
0
0
0
0
0
0
0
0
0
0
0
0
0
0
0
0
0
0
0
0
0
0
0
0
0
0
0
0
0
0
0
0
0
0
0
0
0
0
0
0
