# vtk DataFile Version 2.0
FlowField
ASCII
DATASET STRUCTURED_GRID
DIMENSIONS 102 13 1 
POINTS 1326 double
0 0 0
0.3 0 0
0.6 0 0
0.9 0 0
1.2 0 0
1.5 0 0
1.8 0 0
2.1 0 0
2.4 0 0
2.7 0 0
3 0 0
3.3 0 0
3.6 0 0
3.9 0 0
4.2 0 0
4.5 0 0
4.8 0 0
5.1 0 0
5.4 0 0
5.7 0 0
6 0 0
6.3 0 0
6.6 0 0
6.9 0 0
7.2 0 0
7.5 0 0
7.8 0 0
8.1 0 0
8.4 0 0
8.7 0 0
9 0 0
9.3 0 0
9.6 0 0
9.9 0 0
10.2 0 0
10.5 0 0
10.8 0 0
11.1 0 0
11.4 0 0
11.7 0 0
12 0 0
12.3 0 0
12.6 0 0
12.9 0 0
13.2 0 0
13.5 0 0
13.8 0 0
14.1 0 0
14.4 0 0
14.7 0 0
15 0 0
15.3 0 0
15.6 0 0
15.9 0 0
16.2 0 0
16.5 0 0
16.8 0 0
17.1 0 0
17.4 0 0
17.7 0 0
18 0 0
18.3 0 0
18.6 0 0
18.9 0 0
19.2 0 0
19.5 0 0
19.8 0 0
20.1 0 0
20.4 0 0
20.7 0 0
21 0 0
21.3 0 0
21.6 0 0
21.9 0 0
22.2 0 0
22.5 0 0
22.8 0 0
23.1 0 0
23.4 0 0
23.7 0 0
24 0 0
24.3 0 0
24.6 0 0
24.9 0 0
25.2 0 0
25.5 0 0
25.8 0 0
26.1 0 0
26.4 0 0
26.7 0 0
27 0 0
27.3 0 0
27.6 0 0
27.9 0 0
28.2 0 0
28.5 0 0
28.8 0 0
29.1 0 0
29.4 0 0
29.7 0 0
30 0 0
30.3 0 0
0 0.1 0
0.3 0.1 0
0.6 0.1 0
0.9 0.1 0
1.2 0.1 0
1.5 0.1 0
1.8 0.1 0
2.1 0.1 0
2.4 0.1 0
2.7 0.1 0
3 0.1 0
3.3 0.1 0
3.6 0.1 0
3.9 0.1 0
4.2 0.1 0
4.5 0.1 0
4.8 0.1 0
5.1 0.1 0
5.4 0.1 0
5.7 0.1 0
6 0.1 0
6.3 0.1 0
6.6 0.1 0
6.9 0.1 0
7.2 0.1 0
7.5 0.1 0
7.8 0.1 0
8.1 0.1 0
8.4 0.1 0
8.7 0.1 0
9 0.1 0
9.3 0.1 0
9.6 0.1 0
9.9 0.1 0
10.2 0.1 0
10.5 0.1 0
10.8 0.1 0
11.1 0.1 0
11.4 0.1 0
11.7 0.1 0
12 0.1 0
12.3 0.1 0
12.6 0.1 0
12.9 0.1 0
13.2 0.1 0
13.5 0.1 0
13.8 0.1 0
14.1 0.1 0
14.4 0.1 0
14.7 0.1 0
15 0.1 0
15.3 0.1 0
15.6 0.1 0
15.9 0.1 0
16.2 0.1 0
16.5 0.1 0
16.8 0.1 0
17.1 0.1 0
17.4 0.1 0
17.7 0.1 0
18 0.1 0
18.3 0.1 0
18.6 0.1 0
18.9 0.1 0
19.2 0.1 0
19.5 0.1 0
19.8 0.1 0
20.1 0.1 0
20.4 0.1 0
20.7 0.1 0
21 0.1 0
21.3 0.1 0
21.6 0.1 0
21.9 0.1 0
22.2 0.1 0
22.5 0.1 0
22.8 0.1 0
23.1 0.1 0
23.4 0.1 0
23.7 0.1 0
24 0.1 0
24.3 0.1 0
24.6 0.1 0
24.9 0.1 0
25.2 0.1 0
25.5 0.1 0
25.8 0.1 0
26.1 0.1 0
26.4 0.1 0
26.7 0.1 0
27 0.1 0
27.3 0.1 0
27.6 0.1 0
27.9 0.1 0
28.2 0.1 0
28.5 0.1 0
28.8 0.1 0
29.1 0.1 0
29.4 0.1 0
29.7 0.1 0
30 0.1 0
30.3 0.1 0
0 0.2 0
0.3 0.2 0
0.6 0.2 0
0.9 0.2 0
1.2 0.2 0
1.5 0.2 0
1.8 0.2 0
2.1 0.2 0
2.4 0.2 0
2.7 0.2 0
3 0.2 0
3.3 0.2 0
3.6 0.2 0
3.9 0.2 0
4.2 0.2 0
4.5 0.2 0
4.8 0.2 0
5.1 0.2 0
5.4 0.2 0
5.7 0.2 0
6 0.2 0
6.3 0.2 0
6.6 0.2 0
6.9 0.2 0
7.2 0.2 0
7.5 0.2 0
7.8 0.2 0
8.1 0.2 0
8.4 0.2 0
8.7 0.2 0
9 0.2 0
9.3 0.2 0
9.6 0.2 0
9.9 0.2 0
10.2 0.2 0
10.5 0.2 0
10.8 0.2 0
11.1 0.2 0
11.4 0.2 0
11.7 0.2 0
12 0.2 0
12.3 0.2 0
12.6 0.2 0
12.9 0.2 0
13.2 0.2 0
13.5 0.2 0
13.8 0.2 0
14.1 0.2 0
14.4 0.2 0
14.7 0.2 0
15 0.2 0
15.3 0.2 0
15.6 0.2 0
15.9 0.2 0
16.2 0.2 0
16.5 0.2 0
16.8 0.2 0
17.1 0.2 0
17.4 0.2 0
17.7 0.2 0
18 0.2 0
18.3 0.2 0
18.6 0.2 0
18.9 0.2 0
19.2 0.2 0
19.5 0.2 0
19.8 0.2 0
20.1 0.2 0
20.4 0.2 0
20.7 0.2 0
21 0.2 0
21.3 0.2 0
21.6 0.2 0
21.9 0.2 0
22.2 0.2 0
22.5 0.2 0
22.8 0.2 0
23.1 0.2 0
23.4 0.2 0
23.7 0.2 0
24 0.2 0
24.3 0.2 0
24.6 0.2 0
24.9 0.2 0
25.2 0.2 0
25.5 0.2 0
25.8 0.2 0
26.1 0.2 0
26.4 0.2 0
26.7 0.2 0
27 0.2 0
27.3 0.2 0
27.6 0.2 0
27.9 0.2 0
28.2 0.2 0
28.5 0.2 0
28.8 0.2 0
29.1 0.2 0
29.4 0.2 0
29.7 0.2 0
30 0.2 0
30.3 0.2 0
0 0.3 0
0.3 0.3 0
0.6 0.3 0
0.9 0.3 0
1.2 0.3 0
1.5 0.3 0
1.8 0.3 0
2.1 0.3 0
2.4 0.3 0
2.7 0.3 0
3 0.3 0
3.3 0.3 0
3.6 0.3 0
3.9 0.3 0
4.2 0.3 0
4.5 0.3 0
4.8 0.3 0
5.1 0.3 0
5.4 0.3 0
5.7 0.3 0
6 0.3 0
6.3 0.3 0
6.6 0.3 0
6.9 0.3 0
7.2 0.3 0
7.5 0.3 0
7.8 0.3 0
8.1 0.3 0
8.4 0.3 0
8.7 0.3 0
9 0.3 0
9.3 0.3 0
9.6 0.3 0
9.9 0.3 0
10.2 0.3 0
10.5 0.3 0
10.8 0.3 0
11.1 0.3 0
11.4 0.3 0
11.7 0.3 0
12 0.3 0
12.3 0.3 0
12.6 0.3 0
12.9 0.3 0
13.2 0.3 0
13.5 0.3 0
13.8 0.3 0
14.1 0.3 0
14.4 0.3 0
14.7 0.3 0
15 0.3 0
15.3 0.3 0
15.6 0.3 0
15.9 0.3 0
16.2 0.3 0
16.5 0.3 0
16.8 0.3 0
17.1 0.3 0
17.4 0.3 0
17.7 0.3 0
18 0.3 0
18.3 0.3 0
18.6 0.3 0
18.9 0.3 0
19.2 0.3 0
19.5 0.3 0
19.8 0.3 0
20.1 0.3 0
20.4 0.3 0
20.7 0.3 0
21 0.3 0
21.3 0.3 0
21.6 0.3 0
21.9 0.3 0
22.2 0.3 0
22.5 0.3 0
22.8 0.3 0
23.1 0.3 0
23.4 0.3 0
23.7 0.3 0
24 0.3 0
24.3 0.3 0
24.6 0.3 0
24.9 0.3 0
25.2 0.3 0
25.5 0.3 0
25.8 0.3 0
26.1 0.3 0
26.4 0.3 0
26.7 0.3 0
27 0.3 0
27.3 0.3 0
27.6 0.3 0
27.9 0.3 0
28.2 0.3 0
28.5 0.3 0
28.8 0.3 0
29.1 0.3 0
29.4 0.3 0
29.7 0.3 0
30 0.3 0
30.3 0.3 0
0 0.4 0
0.3 0.4 0
0.6 0.4 0
0.9 0.4 0
1.2 0.4 0
1.5 0.4 0
1.8 0.4 0
2.1 0.4 0
2.4 0.4 0
2.7 0.4 0
3 0.4 0
3.3 0.4 0
3.6 0.4 0
3.9 0.4 0
4.2 0.4 0
4.5 0.4 0
4.8 0.4 0
5.1 0.4 0
5.4 0.4 0
5.7 0.4 0
6 0.4 0
6.3 0.4 0
6.6 0.4 0
6.9 0.4 0
7.2 0.4 0
7.5 0.4 0
7.8 0.4 0
8.1 0.4 0
8.4 0.4 0
8.7 0.4 0
9 0.4 0
9.3 0.4 0
9.6 0.4 0
9.9 0.4 0
10.2 0.4 0
10.5 0.4 0
10.8 0.4 0
11.1 0.4 0
11.4 0.4 0
11.7 0.4 0
12 0.4 0
12.3 0.4 0
12.6 0.4 0
12.9 0.4 0
13.2 0.4 0
13.5 0.4 0
13.8 0.4 0
14.1 0.4 0
14.4 0.4 0
14.7 0.4 0
15 0.4 0
15.3 0.4 0
15.6 0.4 0
15.9 0.4 0
16.2 0.4 0
16.5 0.4 0
16.8 0.4 0
17.1 0.4 0
17.4 0.4 0
17.7 0.4 0
18 0.4 0
18.3 0.4 0
18.6 0.4 0
18.9 0.4 0
19.2 0.4 0
19.5 0.4 0
19.8 0.4 0
20.1 0.4 0
20.4 0.4 0
20.7 0.4 0
21 0.4 0
21.3 0.4 0
21.6 0.4 0
21.9 0.4 0
22.2 0.4 0
22.5 0.4 0
22.8 0.4 0
23.1 0.4 0
23.4 0.4 0
23.7 0.4 0
24 0.4 0
24.3 0.4 0
24.6 0.4 0
24.9 0.4 0
25.2 0.4 0
25.5 0.4 0
25.8 0.4 0
26.1 0.4 0
26.4 0.4 0
26.7 0.4 0
27 0.4 0
27.3 0.4 0
27.6 0.4 0
27.9 0.4 0
28.2 0.4 0
28.5 0.4 0
28.8 0.4 0
29.1 0.4 0
29.4 0.4 0
29.7 0.4 0
30 0.4 0
30.3 0.4 0
0 0.5 0
0.3 0.5 0
0.6 0.5 0
0.9 0.5 0
1.2 0.5 0
1.5 0.5 0
1.8 0.5 0
2.1 0.5 0
2.4 0.5 0
2.7 0.5 0
3 0.5 0
3.3 0.5 0
3.6 0.5 0
3.9 0.5 0
4.2 0.5 0
4.5 0.5 0
4.8 0.5 0
5.1 0.5 0
5.4 0.5 0
5.7 0.5 0
6 0.5 0
6.3 0.5 0
6.6 0.5 0
6.9 0.5 0
7.2 0.5 0
7.5 0.5 0
7.8 0.5 0
8.1 0.5 0
8.4 0.5 0
8.7 0.5 0
9 0.5 0
9.3 0.5 0
9.6 0.5 0
9.9 0.5 0
10.2 0.5 0
10.5 0.5 0
10.8 0.5 0
11.1 0.5 0
11.4 0.5 0
11.7 0.5 0
12 0.5 0
12.3 0.5 0
12.6 0.5 0
12.9 0.5 0
13.2 0.5 0
13.5 0.5 0
13.8 0.5 0
14.1 0.5 0
14.4 0.5 0
14.7 0.5 0
15 0.5 0
15.3 0.5 0
15.6 0.5 0
15.9 0.5 0
16.2 0.5 0
16.5 0.5 0
16.8 0.5 0
17.1 0.5 0
17.4 0.5 0
17.7 0.5 0
18 0.5 0
18.3 0.5 0
18.6 0.5 0
18.9 0.5 0
19.2 0.5 0
19.5 0.5 0
19.8 0.5 0
20.1 0.5 0
20.4 0.5 0
20.7 0.5 0
21 0.5 0
21.3 0.5 0
21.6 0.5 0
21.9 0.5 0
22.2 0.5 0
22.5 0.5 0
22.8 0.5 0
23.1 0.5 0
23.4 0.5 0
23.7 0.5 0
24 0.5 0
24.3 0.5 0
24.6 0.5 0
24.9 0.5 0
25.2 0.5 0
25.5 0.5 0
25.8 0.5 0
26.1 0.5 0
26.4 0.5 0
26.7 0.5 0
27 0.5 0
27.3 0.5 0
27.6 0.5 0
27.9 0.5 0
28.2 0.5 0
28.5 0.5 0
28.8 0.5 0
29.1 0.5 0
29.4 0.5 0
29.7 0.5 0
30 0.5 0
30.3 0.5 0
0 0.6 0
0.3 0.6 0
0.6 0.6 0
0.9 0.6 0
1.2 0.6 0
1.5 0.6 0
1.8 0.6 0
2.1 0.6 0
2.4 0.6 0
2.7 0.6 0
3 0.6 0
3.3 0.6 0
3.6 0.6 0
3.9 0.6 0
4.2 0.6 0
4.5 0.6 0
4.8 0.6 0
5.1 0.6 0
5.4 0.6 0
5.7 0.6 0
6 0.6 0
6.3 0.6 0
6.6 0.6 0
6.9 0.6 0
7.2 0.6 0
7.5 0.6 0
7.8 0.6 0
8.1 0.6 0
8.4 0.6 0
8.7 0.6 0
9 0.6 0
9.3 0.6 0
9.6 0.6 0
9.9 0.6 0
10.2 0.6 0
10.5 0.6 0
10.8 0.6 0
11.1 0.6 0
11.4 0.6 0
11.7 0.6 0
12 0.6 0
12.3 0.6 0
12.6 0.6 0
12.9 0.6 0
13.2 0.6 0
13.5 0.6 0
13.8 0.6 0
14.1 0.6 0
14.4 0.6 0
14.7 0.6 0
15 0.6 0
15.3 0.6 0
15.6 0.6 0
15.9 0.6 0
16.2 0.6 0
16.5 0.6 0
16.8 0.6 0
17.1 0.6 0
17.4 0.6 0
17.7 0.6 0
18 0.6 0
18.3 0.6 0
18.6 0.6 0
18.9 0.6 0
19.2 0.6 0
19.5 0.6 0
19.8 0.6 0
20.1 0.6 0
20.4 0.6 0
20.7 0.6 0
21 0.6 0
21.3 0.6 0
21.6 0.6 0
21.9 0.6 0
22.2 0.6 0
22.5 0.6 0
22.8 0.6 0
23.1 0.6 0
23.4 0.6 0
23.7 0.6 0
24 0.6 0
24.3 0.6 0
24.6 0.6 0
24.9 0.6 0
25.2 0.6 0
25.5 0.6 0
25.8 0.6 0
26.1 0.6 0
26.4 0.6 0
26.7 0.6 0
27 0.6 0
27.3 0.6 0
27.6 0.6 0
27.9 0.6 0
28.2 0.6 0
28.5 0.6 0
28.8 0.6 0
29.1 0.6 0
29.4 0.6 0
29.7 0.6 0
30 0.6 0
30.3 0.6 0
0 0.7 0
0.3 0.7 0
0.6 0.7 0
0.9 0.7 0
1.2 0.7 0
1.5 0.7 0
1.8 0.7 0
2.1 0.7 0
2.4 0.7 0
2.7 0.7 0
3 0.7 0
3.3 0.7 0
3.6 0.7 0
3.9 0.7 0
4.2 0.7 0
4.5 0.7 0
4.8 0.7 0
5.1 0.7 0
5.4 0.7 0
5.7 0.7 0
6 0.7 0
6.3 0.7 0
6.6 0.7 0
6.9 0.7 0
7.2 0.7 0
7.5 0.7 0
7.8 0.7 0
8.1 0.7 0
8.4 0.7 0
8.7 0.7 0
9 0.7 0
9.3 0.7 0
9.6 0.7 0
9.9 0.7 0
10.2 0.7 0
10.5 0.7 0
10.8 0.7 0
11.1 0.7 0
11.4 0.7 0
11.7 0.7 0
12 0.7 0
12.3 0.7 0
12.6 0.7 0
12.9 0.7 0
13.2 0.7 0
13.5 0.7 0
13.8 0.7 0
14.1 0.7 0
14.4 0.7 0
14.7 0.7 0
15 0.7 0
15.3 0.7 0
15.6 0.7 0
15.9 0.7 0
16.2 0.7 0
16.5 0.7 0
16.8 0.7 0
17.1 0.7 0
17.4 0.7 0
17.7 0.7 0
18 0.7 0
18.3 0.7 0
18.6 0.7 0
18.9 0.7 0
19.2 0.7 0
19.5 0.7 0
19.8 0.7 0
20.1 0.7 0
20.4 0.7 0
20.7 0.7 0
21 0.7 0
21.3 0.7 0
21.6 0.7 0
21.9 0.7 0
22.2 0.7 0
22.5 0.7 0
22.8 0.7 0
23.1 0.7 0
23.4 0.7 0
23.7 0.7 0
24 0.7 0
24.3 0.7 0
24.6 0.7 0
24.9 0.7 0
25.2 0.7 0
25.5 0.7 0
25.8 0.7 0
26.1 0.7 0
26.4 0.7 0
26.7 0.7 0
27 0.7 0
27.3 0.7 0
27.6 0.7 0
27.9 0.7 0
28.2 0.7 0
28.5 0.7 0
28.8 0.7 0
29.1 0.7 0
29.4 0.7 0
29.7 0.7 0
30 0.7 0
30.3 0.7 0
0 0.8 0
0.3 0.8 0
0.6 0.8 0
0.9 0.8 0
1.2 0.8 0
1.5 0.8 0
1.8 0.8 0
2.1 0.8 0
2.4 0.8 0
2.7 0.8 0
3 0.8 0
3.3 0.8 0
3.6 0.8 0
3.9 0.8 0
4.2 0.8 0
4.5 0.8 0
4.8 0.8 0
5.1 0.8 0
5.4 0.8 0
5.7 0.8 0
6 0.8 0
6.3 0.8 0
6.6 0.8 0
6.9 0.8 0
7.2 0.8 0
7.5 0.8 0
7.8 0.8 0
8.1 0.8 0
8.4 0.8 0
8.7 0.8 0
9 0.8 0
9.3 0.8 0
9.6 0.8 0
9.9 0.8 0
10.2 0.8 0
10.5 0.8 0
10.8 0.8 0
11.1 0.8 0
11.4 0.8 0
11.7 0.8 0
12 0.8 0
12.3 0.8 0
12.6 0.8 0
12.9 0.8 0
13.2 0.8 0
13.5 0.8 0
13.8 0.8 0
14.1 0.8 0
14.4 0.8 0
14.7 0.8 0
15 0.8 0
15.3 0.8 0
15.6 0.8 0
15.9 0.8 0
16.2 0.8 0
16.5 0.8 0
16.8 0.8 0
17.1 0.8 0
17.4 0.8 0
17.7 0.8 0
18 0.8 0
18.3 0.8 0
18.6 0.8 0
18.9 0.8 0
19.2 0.8 0
19.5 0.8 0
19.8 0.8 0
20.1 0.8 0
20.4 0.8 0
20.7 0.8 0
21 0.8 0
21.3 0.8 0
21.6 0.8 0
21.9 0.8 0
22.2 0.8 0
22.5 0.8 0
22.8 0.8 0
23.1 0.8 0
23.4 0.8 0
23.7 0.8 0
24 0.8 0
24.3 0.8 0
24.6 0.8 0
24.9 0.8 0
25.2 0.8 0
25.5 0.8 0
25.8 0.8 0
26.1 0.8 0
26.4 0.8 0
26.7 0.8 0
27 0.8 0
27.3 0.8 0
27.6 0.8 0
27.9 0.8 0
28.2 0.8 0
28.5 0.8 0
28.8 0.8 0
29.1 0.8 0
29.4 0.8 0
29.7 0.8 0
30 0.8 0
30.3 0.8 0
0 0.9 0
0.3 0.9 0
0.6 0.9 0
0.9 0.9 0
1.2 0.9 0
1.5 0.9 0
1.8 0.9 0
2.1 0.9 0
2.4 0.9 0
2.7 0.9 0
3 0.9 0
3.3 0.9 0
3.6 0.9 0
3.9 0.9 0
4.2 0.9 0
4.5 0.9 0
4.8 0.9 0
5.1 0.9 0
5.4 0.9 0
5.7 0.9 0
6 0.9 0
6.3 0.9 0
6.6 0.9 0
6.9 0.9 0
7.2 0.9 0
7.5 0.9 0
7.8 0.9 0
8.1 0.9 0
8.4 0.9 0
8.7 0.9 0
9 0.9 0
9.3 0.9 0
9.6 0.9 0
9.9 0.9 0
10.2 0.9 0
10.5 0.9 0
10.8 0.9 0
11.1 0.9 0
11.4 0.9 0
11.7 0.9 0
12 0.9 0
12.3 0.9 0
12.6 0.9 0
12.9 0.9 0
13.2 0.9 0
13.5 0.9 0
13.8 0.9 0
14.1 0.9 0
14.4 0.9 0
14.7 0.9 0
15 0.9 0
15.3 0.9 0
15.6 0.9 0
15.9 0.9 0
16.2 0.9 0
16.5 0.9 0
16.8 0.9 0
17.1 0.9 0
17.4 0.9 0
17.7 0.9 0
18 0.9 0
18.3 0.9 0
18.6 0.9 0
18.9 0.9 0
19.2 0.9 0
19.5 0.9 0
19.8 0.9 0
20.1 0.9 0
20.4 0.9 0
20.7 0.9 0
21 0.9 0
21.3 0.9 0
21.6 0.9 0
21.9 0.9 0
22.2 0.9 0
22.5 0.9 0
22.8 0.9 0
23.1 0.9 0
23.4 0.9 0
23.7 0.9 0
24 0.9 0
24.3 0.9 0
24.6 0.9 0
24.9 0.9 0
25.2 0.9 0
25.5 0.9 0
25.8 0.9 0
26.1 0.9 0
26.4 0.9 0
26.7 0.9 0
27 0.9 0
27.3 0.9 0
27.6 0.9 0
27.9 0.9 0
28.2 0.9 0
28.5 0.9 0
28.8 0.9 0
29.1 0.9 0
29.4 0.9 0
29.7 0.9 0
30 0.9 0
30.3 0.9 0
0 1 0
0.3 1 0
0.6 1 0
0.9 1 0
1.2 1 0
1.5 1 0
1.8 1 0
2.1 1 0
2.4 1 0
2.7 1 0
3 1 0
3.3 1 0
3.6 1 0
3.9 1 0
4.2 1 0
4.5 1 0
4.8 1 0
5.1 1 0
5.4 1 0
5.7 1 0
6 1 0
6.3 1 0
6.6 1 0
6.9 1 0
7.2 1 0
7.5 1 0
7.8 1 0
8.1 1 0
8.4 1 0
8.7 1 0
9 1 0
9.3 1 0
9.6 1 0
9.9 1 0
10.2 1 0
10.5 1 0
10.8 1 0
11.1 1 0
11.4 1 0
11.7 1 0
12 1 0
12.3 1 0
12.6 1 0
12.9 1 0
13.2 1 0
13.5 1 0
13.8 1 0
14.1 1 0
14.4 1 0
14.7 1 0
15 1 0
15.3 1 0
15.6 1 0
15.9 1 0
16.2 1 0
16.5 1 0
16.8 1 0
17.1 1 0
17.4 1 0
17.7 1 0
18 1 0
18.3 1 0
18.6 1 0
18.9 1 0
19.2 1 0
19.5 1 0
19.8 1 0
20.1 1 0
20.4 1 0
20.7 1 0
21 1 0
21.3 1 0
21.6 1 0
21.9 1 0
22.2 1 0
22.5 1 0
22.8 1 0
23.1 1 0
23.4 1 0
23.7 1 0
24 1 0
24.3 1 0
24.6 1 0
24.9 1 0
25.2 1 0
25.5 1 0
25.8 1 0
26.1 1 0
26.4 1 0
26.7 1 0
27 1 0
27.3 1 0
27.6 1 0
27.9 1 0
28.2 1 0
28.5 1 0
28.8 1 0
29.1 1 0
29.4 1 0
29.7 1 0
30 1 0
30.3 1 0
0 1.1 0
0.3 1.1 0
0.6 1.1 0
0.9 1.1 0
1.2 1.1 0
1.5 1.1 0
1.8 1.1 0
2.1 1.1 0
2.4 1.1 0
2.7 1.1 0
3 1.1 0
3.3 1.1 0
3.6 1.1 0
3.9 1.1 0
4.2 1.1 0
4.5 1.1 0
4.8 1.1 0
5.1 1.1 0
5.4 1.1 0
5.7 1.1 0
6 1.1 0
6.3 1.1 0
6.6 1.1 0
6.9 1.1 0
7.2 1.1 0
7.5 1.1 0
7.8 1.1 0
8.1 1.1 0
8.4 1.1 0
8.7 1.1 0
9 1.1 0
9.3 1.1 0
9.6 1.1 0
9.9 1.1 0
10.2 1.1 0
10.5 1.1 0
10.8 1.1 0
11.1 1.1 0
11.4 1.1 0
11.7 1.1 0
12 1.1 0
12.3 1.1 0
12.6 1.1 0
12.9 1.1 0
13.2 1.1 0
13.5 1.1 0
13.8 1.1 0
14.1 1.1 0
14.4 1.1 0
14.7 1.1 0
15 1.1 0
15.3 1.1 0
15.6 1.1 0
15.9 1.1 0
16.2 1.1 0
16.5 1.1 0
16.8 1.1 0
17.1 1.1 0
17.4 1.1 0
17.7 1.1 0
18 1.1 0
18.3 1.1 0
18.6 1.1 0
18.9 1.1 0
19.2 1.1 0
19.5 1.1 0
19.8 1.1 0
20.1 1.1 0
20.4 1.1 0
20.7 1.1 0
21 1.1 0
21.3 1.1 0
21.6 1.1 0
21.9 1.1 0
22.2 1.1 0
22.5 1.1 0
22.8 1.1 0
23.1 1.1 0
23.4 1.1 0
23.7 1.1 0
24 1.1 0
24.3 1.1 0
24.6 1.1 0
24.9 1.1 0
25.2 1.1 0
25.5 1.1 0
25.8 1.1 0
26.1 1.1 0
26.4 1.1 0
26.7 1.1 0
27 1.1 0
27.3 1.1 0
27.6 1.1 0
27.9 1.1 0
28.2 1.1 0
28.5 1.1 0
28.8 1.1 0
29.1 1.1 0
29.4 1.1 0
29.7 1.1 0
30 1.1 0
30.3 1.1 0
0 1.2 0
0.3 1.2 0
0.6 1.2 0
0.9 1.2 0
1.2 1.2 0
1.5 1.2 0
1.8 1.2 0
2.1 1.2 0
2.4 1.2 0
2.7 1.2 0
3 1.2 0
3.3 1.2 0
3.6 1.2 0
3.9 1.2 0
4.2 1.2 0
4.5 1.2 0
4.8 1.2 0
5.1 1.2 0
5.4 1.2 0
5.7 1.2 0
6 1.2 0
6.3 1.2 0
6.6 1.2 0
6.9 1.2 0
7.2 1.2 0
7.5 1.2 0
7.8 1.2 0
8.1 1.2 0
8.4 1.2 0
8.7 1.2 0
9 1.2 0
9.3 1.2 0
9.6 1.2 0
9.9 1.2 0
10.2 1.2 0
10.5 1.2 0
10.8 1.2 0
11.1 1.2 0
11.4 1.2 0
11.7 1.2 0
12 1.2 0
12.3 1.2 0
12.6 1.2 0
12.9 1.2 0
13.2 1.2 0
13.5 1.2 0
13.8 1.2 0
14.1 1.2 0
14.4 1.2 0
14.7 1.2 0
15 1.2 0
15.3 1.2 0
15.6 1.2 0
15.9 1.2 0
16.2 1.2 0
16.5 1.2 0
16.8 1.2 0
17.1 1.2 0
17.4 1.2 0
17.7 1.2 0
18 1.2 0
18.3 1.2 0
18.6 1.2 0
18.9 1.2 0
19.2 1.2 0
19.5 1.2 0
19.8 1.2 0
20.1 1.2 0
20.4 1.2 0
20.7 1.2 0
21 1.2 0
21.3 1.2 0
21.6 1.2 0
21.9 1.2 0
22.2 1.2 0
22.5 1.2 0
22.8 1.2 0
23.1 1.2 0
23.4 1.2 0
23.7 1.2 0
24 1.2 0
24.3 1.2 0
24.6 1.2 0
24.9 1.2 0
25.2 1.2 0
25.5 1.2 0
25.8 1.2 0
26.1 1.2 0
26.4 1.2 0
26.7 1.2 0
27 1.2 0
27.3 1.2 0
27.6 1.2 0
27.9 1.2 0
28.2 1.2 0
28.5 1.2 0
28.8 1.2 0
29.1 1.2 0
29.4 1.2 0
29.7 1.2 0
30 1.2 0
30.3 1.2 0

POINT_DATA 1326

SCALARS p double
LOOKUP_TABLE default
1.16032
1.16032
1.09548
1.05124
1.01142
0.974843
0.941791
0.912263
0.885908
0.862198
0.840596
0.820633
0.80194
0.784241
0.767334
0.751074
0.735356
0.7201
0.705248
0.690753
0.676579
0.662694
0.649073
0.635694
0.622539
0.609588
0.596829
0.584247
0.571829
0.559565
0.547444
0.535457
0.523596
0.511853
0.50022
0.488691
0.47726
0.46592
0.454667
0.443495
0.4324
0.421377
0.410423
0.399533
0.388704
0.377933
0.367216
0.35655
0.345932
0.335361
0.324833
0.314345
0.303897
0.293486
0.28311
0.272767
0.262457
0.252178
0.241928
0.231708
0.221516
0.211351
0.201213
0.191101
0.181014
0.17095
0.16091
0.150891
0.140893
0.130913
0.120952
0.111006
0.101075
0.0911572
0.081251
0.071355
0.0614678
0.0515883
0.0417151
0.0318474
0.0219842
0.0121248
0.00226837
-0.00758562
-0.0174377
-0.0272884
-0.0371379
-0.0469865
-0.0568344
-0.0666817
-0.0765285
-0.086375
-0.0962214
-0.106068
-0.115914
-0.12576
-0.135606
-0.145452
-0.155298
-0.165144
-0.174987
0.174987
1.16032
1.16032
1.09548
1.05124
1.01142
0.974843
0.941791
0.912263
0.885908
0.862198
0.840596
0.820633
0.80194
0.784241
0.767334
0.751074
0.735356
0.7201
0.705248
0.690753
0.676579
0.662694
0.649073
0.635694
0.622539
0.609588
0.596829
0.584247
0.571829
0.559565
0.547444
0.535457
0.523596
0.511853
0.50022
0.488691
0.47726
0.46592
0.454667
0.443495
0.4324
0.421377
0.410423
0.399533
0.388704
0.377933
0.367216
0.35655
0.345932
0.335361
0.324833
0.314345
0.303897
0.293486
0.28311
0.272767
0.262457
0.252178
0.241928
0.231708
0.221516
0.211351
0.201213
0.191101
0.181014
0.17095
0.16091
0.150891
0.140893
0.130913
0.120952
0.111006
0.101075
0.0911572
0.081251
0.071355
0.0614678
0.0515883
0.0417151
0.0318474
0.0219842
0.0121248
0.00226837
-0.00758562
-0.0174377
-0.0272884
-0.0371379
-0.0469865
-0.0568344
-0.0666817
-0.0765285
-0.086375
-0.0962214
-0.106068
-0.115914
-0.12576
-0.135606
-0.145452
-0.155298
-0.165144
-0.174987
0.174987
1.13938
1.13938
1.09349
1.05147
1.01212
0.97564
0.942534
0.912895
0.886415
0.862593
0.8409
0.820867
0.802122
0.784385
0.767451
0.751172
0.735438
0.720171
0.70531
0.690808
0.676628
0.662738
0.649113
0.635731
0.622572
0.609619
0.596857
0.584273
0.571853
0.559587
0.547465
0.535477
0.523614
0.51187
0.500236
0.488706
0.477273
0.465933
0.454679
0.443506
0.43241
0.421387
0.410432
0.399542
0.388712
0.37794
0.367223
0.356557
0.345939
0.335367
0.324838
0.314351
0.303902
0.293491
0.283114
0.272771
0.262461
0.252181
0.241932
0.231711
0.221519
0.211354
0.201216
0.191103
0.181015
0.170952
0.160911
0.150892
0.140893
0.130914
0.120952
0.111006
0.101075
0.0911573
0.0812511
0.071355
0.0614678
0.0515882
0.0417151
0.0318474
0.0219842
0.0121248
0.00226834
-0.00758566
-0.0174378
-0.0272884
-0.0371379
-0.0469865
-0.0568344
-0.0666817
-0.0765285
-0.086375
-0.0962214
-0.106068
-0.115914
-0.12576
-0.135606
-0.145452
-0.155298
-0.165144
-0.174987
0.174987
1.1244
1.1244
1.09061
1.0517
1.01323
0.976964
0.943796
0.913973
0.887276
0.863253
0.841392
0.821232
0.802394
0.78459
0.76761
0.751297
0.73554
0.720255
0.705381
0.690869
0.676681
0.662785
0.649155
0.635768
0.622605
0.609649
0.596884
0.584297
0.571875
0.559608
0.547484
0.535494
0.52363
0.511884
0.500249
0.488718
0.477285
0.465944
0.454689
0.443516
0.432419
0.421395
0.41044
0.399549
0.388719
0.377947
0.367229
0.356562
0.345944
0.335372
0.324843
0.314355
0.303906
0.293494
0.283118
0.272775
0.262464
0.252184
0.241934
0.231714
0.221521
0.211356
0.201217
0.191105
0.181017
0.170953
0.160912
0.150893
0.140894
0.130914
0.120952
0.111007
0.101075
0.0911574
0.0812511
0.071355
0.0614678
0.0515882
0.041715
0.0318473
0.0219842
0.0121247
0.0022683
-0.0075857
-0.0174378
-0.0272885
-0.037138
-0.0469866
-0.0568344
-0.0666817
-0.0765285
-0.086375
-0.0962214
-0.106068
-0.115914
-0.12576
-0.135606
-0.145452
-0.155298
-0.165143
-0.174987
0.174987
1.11483
1.11483
1.08812
1.05181
1.01419
0.978158
0.944972
0.915009
0.888129
0.863925
0.84191
0.821626
0.802696
0.784825
0.767795
0.751446
0.735663
0.720358
0.705469
0.690945
0.676747
0.662843
0.649206
0.635814
0.622647
0.609686
0.596918
0.584328
0.571903
0.559633
0.547507
0.535515
0.52365
0.511902
0.500266
0.488734
0.477299
0.465957
0.454701
0.443527
0.43243
0.421405
0.410449
0.399558
0.388727
0.377954
0.367236
0.356569
0.34595
0.335378
0.324848
0.31436
0.303911
0.293499
0.283122
0.272779
0.262468
0.252188
0.241938
0.231717
0.221524
0.211359
0.20122
0.191107
0.181019
0.170955
0.160914
0.150894
0.140895
0.130916
0.120954
0.111008
0.101076
0.0911582
0.0812517
0.0713555
0.0614682
0.0515885
0.0417153
0.0318476
0.0219843
0.0121248
0.0022684
-0.00758563
-0.0174378
-0.0272884
-0.0371379
-0.0469865
-0.0568344
-0.0666816
-0.0765285
-0.086375
-0.0962214
-0.106068
-0.115914
-0.12576
-0.135606
-0.145452
-0.155297
-0.165142
-0.174986
0.174986
1.10951
1.10951
1.08649
1.05182
1.01478
0.978925
0.945741
0.915699
0.888707
0.864389
0.842274
0.82191
0.802918
0.785002
0.767938
0.751564
0.735762
0.720443
0.705543
0.69101
0.676804
0.662894
0.649252
0.635855
0.622684
0.60972
0.596949
0.584356
0.571929
0.559656
0.547528
0.535535
0.523668
0.511919
0.500281
0.488748
0.477312
0.465969
0.454712
0.443538
0.43244
0.421414
0.410458
0.399566
0.388735
0.377961
0.367242
0.356575
0.345956
0.335383
0.324854
0.314365
0.303916
0.293503
0.283126
0.272783
0.262471
0.252191
0.241941
0.23172
0.221527
0.211362
0.201223
0.19111
0.181022
0.170957
0.160916
0.150897
0.140897
0.130917
0.120955
0.111009
0.101078
0.0911593
0.0812527
0.0713564
0.0614689
0.0515891
0.0417158
0.031848
0.0219847
0.0121251
0.00226862
-0.00758547
-0.0174376
-0.0272883
-0.0371379
-0.0469865
-0.0568343
-0.0666816
-0.0765285
-0.086375
-0.0962214
-0.106068
-0.115914
-0.12576
-0.135606
-0.145452
-0.155297
-0.16514
-0.174985
0.174985
1.10781
1.10781
1.08595
1.05184
1.01499
0.979199
0.946015
0.915944
0.888914
0.864556
0.842407
0.822015
0.803001
0.785068
0.767992
0.75161
0.735801
0.720477
0.705572
0.691035
0.676827
0.662915
0.649271
0.635872
0.622699
0.609734
0.596961
0.584367
0.571939
0.559666
0.547537
0.535543
0.523676
0.511926
0.500288
0.488754
0.477318
0.465974
0.454717
0.443542
0.432444
0.421419
0.410462
0.399569
0.388738
0.377964
0.367245
0.356578
0.345959
0.335386
0.324856
0.314367
0.303918
0.293505
0.283128
0.272784
0.262473
0.252193
0.241943
0.231721
0.221529
0.211363
0.201224
0.191111
0.181023
0.170959
0.160917
0.150898
0.140898
0.130918
0.120956
0.11101
0.101078
0.0911599
0.0812532
0.0713568
0.0614693
0.0515894
0.0417161
0.0318482
0.0219848
0.0121253
0.00226873
-0.00758538
-0.0174376
-0.0272883
-0.0371378
-0.0469864
-0.0568343
-0.0666816
-0.0765284
-0.086375
-0.0962214
-0.106068
-0.115914
-0.12576
-0.135606
-0.145452
-0.155297
-0.165139
-0.174985
0.174985
1.10951
1.10951
1.08649
1.05182
1.01478
0.978925
0.945741
0.915699
0.888707
0.864389
0.842274
0.82191
0.802918
0.785002
0.767938
0.751564
0.735762
0.720443
0.705543
0.69101
0.676804
0.662894
0.649252
0.635855
0.622684
0.60972
0.596949
0.584356
0.571929
0.559656
0.547528
0.535535
0.523668
0.511919
0.500281
0.488748
0.477312
0.465969
0.454712
0.443538
0.43244
0.421414
0.410458
0.399566
0.388735
0.377961
0.367242
0.356575
0.345956
0.335383
0.324854
0.314365
0.303916
0.293503
0.283126
0.272783
0.262471
0.252191
0.241941
0.23172
0.221527
0.211362
0.201223
0.19111
0.181022
0.170957
0.160916
0.150897
0.140897
0.130917
0.120955
0.111009
0.101078
0.0911593
0.0812527
0.0713564
0.0614689
0.0515891
0.0417158
0.031848
0.0219847
0.0121251
0.00226862
-0.00758547
-0.0174377
-0.0272884
-0.0371379
-0.0469865
-0.0568343
-0.0666816
-0.0765284
-0.086375
-0.0962214
-0.106068
-0.115914
-0.12576
-0.135606
-0.145452
-0.155297
-0.16514
-0.174985
0.174985
1.11483
1.11483
1.08812
1.05181
1.01419
0.978158
0.944972
0.915009
0.888129
0.863925
0.84191
0.821626
0.802696
0.784825
0.767795
0.751446
0.735663
0.720358
0.705469
0.690945
0.676747
0.662843
0.649206
0.635814
0.622647
0.609686
0.596918
0.584328
0.571903
0.559633
0.547507
0.535515
0.52365
0.511902
0.500266
0.488734
0.477299
0.465957
0.454701
0.443527
0.43243
0.421405
0.410449
0.399558
0.388727
0.377954
0.367236
0.356569
0.34595
0.335378
0.324848
0.31436
0.303911
0.293499
0.283122
0.272779
0.262468
0.252188
0.241938
0.231717
0.221524
0.211359
0.20122
0.191107
0.181019
0.170955
0.160914
0.150894
0.140895
0.130916
0.120954
0.111008
0.101076
0.0911582
0.0812517
0.0713555
0.0614682
0.0515885
0.0417153
0.0318476
0.0219844
0.0121249
0.00226842
-0.00758564
-0.0174378
-0.0272885
-0.037138
-0.0469865
-0.0568343
-0.0666816
-0.0765285
-0.0863751
-0.0962215
-0.106068
-0.115914
-0.12576
-0.135606
-0.145452
-0.155297
-0.165142
-0.174986
0.174986
1.1244
1.1244
1.09061
1.0517
1.01323
0.976964
0.943796
0.913973
0.887276
0.863253
0.841392
0.821232
0.802394
0.78459
0.76761
0.751297
0.73554
0.720255
0.705381
0.690869
0.676681
0.662785
0.649155
0.635768
0.622605
0.609649
0.596884
0.584297
0.571875
0.559608
0.547484
0.535494
0.52363
0.511884
0.500249
0.488718
0.477285
0.465944
0.454689
0.443516
0.432419
0.421395
0.41044
0.399549
0.388719
0.377947
0.367229
0.356562
0.345944
0.335372
0.324843
0.314355
0.303906
0.293494
0.283118
0.272775
0.262464
0.252184
0.241934
0.231714
0.221521
0.211356
0.201217
0.191105
0.181017
0.170953
0.160912
0.150893
0.140894
0.130914
0.120952
0.111007
0.101075
0.0911574
0.0812511
0.071355
0.0614678
0.0515882
0.041715
0.0318474
0.0219842
0.0121248
0.00226831
-0.00758573
-0.0174379
-0.0272885
-0.037138
-0.0469865
-0.0568343
-0.0666816
-0.0765285
-0.0863751
-0.0962215
-0.106068
-0.115914
-0.12576
-0.135606
-0.145452
-0.155298
-0.165143
-0.174987
0.174987
1.13938
1.13938
1.09349
1.05147
1.01212
0.97564
0.942534
0.912895
0.886415
0.862593
0.8409
0.820867
0.802122
0.784385
0.767451
0.751172
0.735438
0.720171
0.70531
0.690808
0.676628
0.662738
0.649113
0.635731
0.622572
0.609619
0.596857
0.584273
0.571853
0.559587
0.547465
0.535477
0.523614
0.51187
0.500236
0.488706
0.477273
0.465933
0.454679
0.443506
0.43241
0.421387
0.410432
0.399542
0.388712
0.37794
0.367223
0.356557
0.345939
0.335367
0.324838
0.314351
0.303902
0.293491
0.283114
0.272771
0.262461
0.252181
0.241932
0.231711
0.221519
0.211354
0.201216
0.191103
0.181015
0.170952
0.160911
0.150892
0.140893
0.130914
0.120952
0.111006
0.101075
0.0911573
0.0812511
0.071355
0.0614678
0.0515882
0.0417151
0.0318474
0.0219842
0.0121248
0.00226835
-0.0075857
-0.0174378
-0.0272885
-0.037138
-0.0469865
-0.0568343
-0.0666816
-0.0765285
-0.0863751
-0.0962215
-0.106068
-0.115914
-0.12576
-0.135606
-0.145452
-0.155298
-0.165144
-0.174987
0.174987
1.16032
1.16032
1.09548
1.05124
1.01142
0.974843
0.941791
0.912263
0.885908
0.862198
0.840596
0.820633
0.80194
0.784241
0.767334
0.751074
0.735356
0.7201
0.705248
0.690753
0.676579
0.662694
0.649073
0.635694
0.622539
0.609588
0.596829
0.584247
0.571829
0.559565
0.547444
0.535457
0.523596
0.511853
0.50022
0.488691
0.47726
0.46592
0.454667
0.443495
0.4324
0.421377
0.410423
0.399533
0.388704
0.377933
0.367216
0.35655
0.345932
0.335361
0.324833
0.314345
0.303897
0.293486
0.28311
0.272767
0.262457
0.252178
0.241928
0.231708
0.221516
0.211351
0.201213
0.191101
0.181014
0.17095
0.16091
0.150891
0.140893
0.130913
0.120952
0.111006
0.101075
0.0911572
0.081251
0.0713549
0.0614678
0.0515882
0.0417151
0.0318474
0.0219843
0.0121248
0.00226839
-0.00758567
-0.0174378
-0.0272885
-0.0371379
-0.0469865
-0.0568343
-0.0666816
-0.0765284
-0.0863751
-0.0962215
-0.106068
-0.115914
-0.12576
-0.135606
-0.145452
-0.155298
-0.165144
-0.174987
0.174987
1.16032
1.16032
1.09548
1.05124
1.01142
0.974843
0.941791
0.912263
0.885908
0.862198
0.840596
0.820633
0.80194
0.784241
0.767334
0.751074
0.735356
0.7201
0.705248
0.690753
0.676579
0.662694
0.649073
0.635694
0.622539
0.609588
0.596829
0.584247
0.571829
0.559565
0.547444
0.535457
0.523596
0.511853
0.50022
0.488691
0.47726
0.46592
0.454667
0.443495
0.4324
0.421377
0.410423
0.399533
0.388704
0.377933
0.367216
0.35655
0.345932
0.335361
0.324833
0.314345
0.303897
0.293486
0.28311
0.272767
0.262457
0.252178
0.241928
0.231708
0.221516
0.211351
0.201213
0.191101
0.181014
0.17095
0.16091
0.150891
0.140893
0.130913
0.120952
0.111006
0.101075
0.0911572
0.081251
0.0713549
0.0614678
0.0515882
0.0417151
0.0318474
0.0219843
0.0121248
0.00226839
-0.00758567
-0.0174378
-0.0272885
-0.0371379
-0.0469865
-0.0568343
-0.0666816
-0.0765284
-0.0863751
-0.0962215
-0.106068
-0.115914
-0.12576
-0.135606
-0.145452
-0.155298
-0.165144
-0.174987
0.174987
