# vtk DataFile Version 2.0
FlowField
ASCII
DATASET STRUCTURED_GRID
DIMENSIONS 102 12 1 
POINTS 1224 double
0 0 0
0.3 0 0
0.6 0 0
0.9 0 0
1.2 0 0
1.5 0 0
1.8 0 0
2.1 0 0
2.4 0 0
2.7 0 0
3 0 0
3.3 0 0
3.6 0 0
3.9 0 0
4.2 0 0
4.5 0 0
4.8 0 0
5.1 0 0
5.4 0 0
5.7 0 0
6 0 0
6.3 0 0
6.6 0 0
6.9 0 0
7.2 0 0
7.5 0 0
7.8 0 0
8.1 0 0
8.4 0 0
8.7 0 0
9 0 0
9.3 0 0
9.6 0 0
9.9 0 0
10.2 0 0
10.5 0 0
10.8 0 0
11.1 0 0
11.4 0 0
11.7 0 0
12 0 0
12.3 0 0
12.6 0 0
12.9 0 0
13.2 0 0
13.5 0 0
13.8 0 0
14.1 0 0
14.4 0 0
14.7 0 0
15 0 0
15.3 0 0
15.6 0 0
15.9 0 0
16.2 0 0
16.5 0 0
16.8 0 0
17.1 0 0
17.4 0 0
17.7 0 0
18 0 0
18.3 0 0
18.6 0 0
18.9 0 0
19.2 0 0
19.5 0 0
19.8 0 0
20.1 0 0
20.4 0 0
20.7 0 0
21 0 0
21.3 0 0
21.6 0 0
21.9 0 0
22.2 0 0
22.5 0 0
22.8 0 0
23.1 0 0
23.4 0 0
23.7 0 0
24 0 0
24.3 0 0
24.6 0 0
24.9 0 0
25.2 0 0
25.5 0 0
25.8 0 0
26.1 0 0
26.4 0 0
26.7 0 0
27 0 0
27.3 0 0
27.6 0 0
27.9 0 0
28.2 0 0
28.5 0 0
28.8 0 0
29.1 0 0
29.4 0 0
29.7 0 0
30 0 0
30.3 0 0
0 0.1 0
0.3 0.1 0
0.6 0.1 0
0.9 0.1 0
1.2 0.1 0
1.5 0.1 0
1.8 0.1 0
2.1 0.1 0
2.4 0.1 0
2.7 0.1 0
3 0.1 0
3.3 0.1 0
3.6 0.1 0
3.9 0.1 0
4.2 0.1 0
4.5 0.1 0
4.8 0.1 0
5.1 0.1 0
5.4 0.1 0
5.7 0.1 0
6 0.1 0
6.3 0.1 0
6.6 0.1 0
6.9 0.1 0
7.2 0.1 0
7.5 0.1 0
7.8 0.1 0
8.1 0.1 0
8.4 0.1 0
8.7 0.1 0
9 0.1 0
9.3 0.1 0
9.6 0.1 0
9.9 0.1 0
10.2 0.1 0
10.5 0.1 0
10.8 0.1 0
11.1 0.1 0
11.4 0.1 0
11.7 0.1 0
12 0.1 0
12.3 0.1 0
12.6 0.1 0
12.9 0.1 0
13.2 0.1 0
13.5 0.1 0
13.8 0.1 0
14.1 0.1 0
14.4 0.1 0
14.7 0.1 0
15 0.1 0
15.3 0.1 0
15.6 0.1 0
15.9 0.1 0
16.2 0.1 0
16.5 0.1 0
16.8 0.1 0
17.1 0.1 0
17.4 0.1 0
17.7 0.1 0
18 0.1 0
18.3 0.1 0
18.6 0.1 0
18.9 0.1 0
19.2 0.1 0
19.5 0.1 0
19.8 0.1 0
20.1 0.1 0
20.4 0.1 0
20.7 0.1 0
21 0.1 0
21.3 0.1 0
21.6 0.1 0
21.9 0.1 0
22.2 0.1 0
22.5 0.1 0
22.8 0.1 0
23.1 0.1 0
23.4 0.1 0
23.7 0.1 0
24 0.1 0
24.3 0.1 0
24.6 0.1 0
24.9 0.1 0
25.2 0.1 0
25.5 0.1 0
25.8 0.1 0
26.1 0.1 0
26.4 0.1 0
26.7 0.1 0
27 0.1 0
27.3 0.1 0
27.6 0.1 0
27.9 0.1 0
28.2 0.1 0
28.5 0.1 0
28.8 0.1 0
29.1 0.1 0
29.4 0.1 0
29.7 0.1 0
30 0.1 0
30.3 0.1 0
0 0.2 0
0.3 0.2 0
0.6 0.2 0
0.9 0.2 0
1.2 0.2 0
1.5 0.2 0
1.8 0.2 0
2.1 0.2 0
2.4 0.2 0
2.7 0.2 0
3 0.2 0
3.3 0.2 0
3.6 0.2 0
3.9 0.2 0
4.2 0.2 0
4.5 0.2 0
4.8 0.2 0
5.1 0.2 0
5.4 0.2 0
5.7 0.2 0
6 0.2 0
6.3 0.2 0
6.6 0.2 0
6.9 0.2 0
7.2 0.2 0
7.5 0.2 0
7.8 0.2 0
8.1 0.2 0
8.4 0.2 0
8.7 0.2 0
9 0.2 0
9.3 0.2 0
9.6 0.2 0
9.9 0.2 0
10.2 0.2 0
10.5 0.2 0
10.8 0.2 0
11.1 0.2 0
11.4 0.2 0
11.7 0.2 0
12 0.2 0
12.3 0.2 0
12.6 0.2 0
12.9 0.2 0
13.2 0.2 0
13.5 0.2 0
13.8 0.2 0
14.1 0.2 0
14.4 0.2 0
14.7 0.2 0
15 0.2 0
15.3 0.2 0
15.6 0.2 0
15.9 0.2 0
16.2 0.2 0
16.5 0.2 0
16.8 0.2 0
17.1 0.2 0
17.4 0.2 0
17.7 0.2 0
18 0.2 0
18.3 0.2 0
18.6 0.2 0
18.9 0.2 0
19.2 0.2 0
19.5 0.2 0
19.8 0.2 0
20.1 0.2 0
20.4 0.2 0
20.7 0.2 0
21 0.2 0
21.3 0.2 0
21.6 0.2 0
21.9 0.2 0
22.2 0.2 0
22.5 0.2 0
22.8 0.2 0
23.1 0.2 0
23.4 0.2 0
23.7 0.2 0
24 0.2 0
24.3 0.2 0
24.6 0.2 0
24.9 0.2 0
25.2 0.2 0
25.5 0.2 0
25.8 0.2 0
26.1 0.2 0
26.4 0.2 0
26.7 0.2 0
27 0.2 0
27.3 0.2 0
27.6 0.2 0
27.9 0.2 0
28.2 0.2 0
28.5 0.2 0
28.8 0.2 0
29.1 0.2 0
29.4 0.2 0
29.7 0.2 0
30 0.2 0
30.3 0.2 0
0 0.3 0
0.3 0.3 0
0.6 0.3 0
0.9 0.3 0
1.2 0.3 0
1.5 0.3 0
1.8 0.3 0
2.1 0.3 0
2.4 0.3 0
2.7 0.3 0
3 0.3 0
3.3 0.3 0
3.6 0.3 0
3.9 0.3 0
4.2 0.3 0
4.5 0.3 0
4.8 0.3 0
5.1 0.3 0
5.4 0.3 0
5.7 0.3 0
6 0.3 0
6.3 0.3 0
6.6 0.3 0
6.9 0.3 0
7.2 0.3 0
7.5 0.3 0
7.8 0.3 0
8.1 0.3 0
8.4 0.3 0
8.7 0.3 0
9 0.3 0
9.3 0.3 0
9.6 0.3 0
9.9 0.3 0
10.2 0.3 0
10.5 0.3 0
10.8 0.3 0
11.1 0.3 0
11.4 0.3 0
11.7 0.3 0
12 0.3 0
12.3 0.3 0
12.6 0.3 0
12.9 0.3 0
13.2 0.3 0
13.5 0.3 0
13.8 0.3 0
14.1 0.3 0
14.4 0.3 0
14.7 0.3 0
15 0.3 0
15.3 0.3 0
15.6 0.3 0
15.9 0.3 0
16.2 0.3 0
16.5 0.3 0
16.8 0.3 0
17.1 0.3 0
17.4 0.3 0
17.7 0.3 0
18 0.3 0
18.3 0.3 0
18.6 0.3 0
18.9 0.3 0
19.2 0.3 0
19.5 0.3 0
19.8 0.3 0
20.1 0.3 0
20.4 0.3 0
20.7 0.3 0
21 0.3 0
21.3 0.3 0
21.6 0.3 0
21.9 0.3 0
22.2 0.3 0
22.5 0.3 0
22.8 0.3 0
23.1 0.3 0
23.4 0.3 0
23.7 0.3 0
24 0.3 0
24.3 0.3 0
24.6 0.3 0
24.9 0.3 0
25.2 0.3 0
25.5 0.3 0
25.8 0.3 0
26.1 0.3 0
26.4 0.3 0
26.7 0.3 0
27 0.3 0
27.3 0.3 0
27.6 0.3 0
27.9 0.3 0
28.2 0.3 0
28.5 0.3 0
28.8 0.3 0
29.1 0.3 0
29.4 0.3 0
29.7 0.3 0
30 0.3 0
30.3 0.3 0
0 0.4 0
0.3 0.4 0
0.6 0.4 0
0.9 0.4 0
1.2 0.4 0
1.5 0.4 0
1.8 0.4 0
2.1 0.4 0
2.4 0.4 0
2.7 0.4 0
3 0.4 0
3.3 0.4 0
3.6 0.4 0
3.9 0.4 0
4.2 0.4 0
4.5 0.4 0
4.8 0.4 0
5.1 0.4 0
5.4 0.4 0
5.7 0.4 0
6 0.4 0
6.3 0.4 0
6.6 0.4 0
6.9 0.4 0
7.2 0.4 0
7.5 0.4 0
7.8 0.4 0
8.1 0.4 0
8.4 0.4 0
8.7 0.4 0
9 0.4 0
9.3 0.4 0
9.6 0.4 0
9.9 0.4 0
10.2 0.4 0
10.5 0.4 0
10.8 0.4 0
11.1 0.4 0
11.4 0.4 0
11.7 0.4 0
12 0.4 0
12.3 0.4 0
12.6 0.4 0
12.9 0.4 0
13.2 0.4 0
13.5 0.4 0
13.8 0.4 0
14.1 0.4 0
14.4 0.4 0
14.7 0.4 0
15 0.4 0
15.3 0.4 0
15.6 0.4 0
15.9 0.4 0
16.2 0.4 0
16.5 0.4 0
16.8 0.4 0
17.1 0.4 0
17.4 0.4 0
17.7 0.4 0
18 0.4 0
18.3 0.4 0
18.6 0.4 0
18.9 0.4 0
19.2 0.4 0
19.5 0.4 0
19.8 0.4 0
20.1 0.4 0
20.4 0.4 0
20.7 0.4 0
21 0.4 0
21.3 0.4 0
21.6 0.4 0
21.9 0.4 0
22.2 0.4 0
22.5 0.4 0
22.8 0.4 0
23.1 0.4 0
23.4 0.4 0
23.7 0.4 0
24 0.4 0
24.3 0.4 0
24.6 0.4 0
24.9 0.4 0
25.2 0.4 0
25.5 0.4 0
25.8 0.4 0
26.1 0.4 0
26.4 0.4 0
26.7 0.4 0
27 0.4 0
27.3 0.4 0
27.6 0.4 0
27.9 0.4 0
28.2 0.4 0
28.5 0.4 0
28.8 0.4 0
29.1 0.4 0
29.4 0.4 0
29.7 0.4 0
30 0.4 0
30.3 0.4 0
0 0.5 0
0.3 0.5 0
0.6 0.5 0
0.9 0.5 0
1.2 0.5 0
1.5 0.5 0
1.8 0.5 0
2.1 0.5 0
2.4 0.5 0
2.7 0.5 0
3 0.5 0
3.3 0.5 0
3.6 0.5 0
3.9 0.5 0
4.2 0.5 0
4.5 0.5 0
4.8 0.5 0
5.1 0.5 0
5.4 0.5 0
5.7 0.5 0
6 0.5 0
6.3 0.5 0
6.6 0.5 0
6.9 0.5 0
7.2 0.5 0
7.5 0.5 0
7.8 0.5 0
8.1 0.5 0
8.4 0.5 0
8.7 0.5 0
9 0.5 0
9.3 0.5 0
9.6 0.5 0
9.9 0.5 0
10.2 0.5 0
10.5 0.5 0
10.8 0.5 0
11.1 0.5 0
11.4 0.5 0
11.7 0.5 0
12 0.5 0
12.3 0.5 0
12.6 0.5 0
12.9 0.5 0
13.2 0.5 0
13.5 0.5 0
13.8 0.5 0
14.1 0.5 0
14.4 0.5 0
14.7 0.5 0
15 0.5 0
15.3 0.5 0
15.6 0.5 0
15.9 0.5 0
16.2 0.5 0
16.5 0.5 0
16.8 0.5 0
17.1 0.5 0
17.4 0.5 0
17.7 0.5 0
18 0.5 0
18.3 0.5 0
18.6 0.5 0
18.9 0.5 0
19.2 0.5 0
19.5 0.5 0
19.8 0.5 0
20.1 0.5 0
20.4 0.5 0
20.7 0.5 0
21 0.5 0
21.3 0.5 0
21.6 0.5 0
21.9 0.5 0
22.2 0.5 0
22.5 0.5 0
22.8 0.5 0
23.1 0.5 0
23.4 0.5 0
23.7 0.5 0
24 0.5 0
24.3 0.5 0
24.6 0.5 0
24.9 0.5 0
25.2 0.5 0
25.5 0.5 0
25.8 0.5 0
26.1 0.5 0
26.4 0.5 0
26.7 0.5 0
27 0.5 0
27.3 0.5 0
27.6 0.5 0
27.9 0.5 0
28.2 0.5 0
28.5 0.5 0
28.8 0.5 0
29.1 0.5 0
29.4 0.5 0
29.7 0.5 0
30 0.5 0
30.3 0.5 0
0 0.6 0
0.3 0.6 0
0.6 0.6 0
0.9 0.6 0
1.2 0.6 0
1.5 0.6 0
1.8 0.6 0
2.1 0.6 0
2.4 0.6 0
2.7 0.6 0
3 0.6 0
3.3 0.6 0
3.6 0.6 0
3.9 0.6 0
4.2 0.6 0
4.5 0.6 0
4.8 0.6 0
5.1 0.6 0
5.4 0.6 0
5.7 0.6 0
6 0.6 0
6.3 0.6 0
6.6 0.6 0
6.9 0.6 0
7.2 0.6 0
7.5 0.6 0
7.8 0.6 0
8.1 0.6 0
8.4 0.6 0
8.7 0.6 0
9 0.6 0
9.3 0.6 0
9.6 0.6 0
9.9 0.6 0
10.2 0.6 0
10.5 0.6 0
10.8 0.6 0
11.1 0.6 0
11.4 0.6 0
11.7 0.6 0
12 0.6 0
12.3 0.6 0
12.6 0.6 0
12.9 0.6 0
13.2 0.6 0
13.5 0.6 0
13.8 0.6 0
14.1 0.6 0
14.4 0.6 0
14.7 0.6 0
15 0.6 0
15.3 0.6 0
15.6 0.6 0
15.9 0.6 0
16.2 0.6 0
16.5 0.6 0
16.8 0.6 0
17.1 0.6 0
17.4 0.6 0
17.7 0.6 0
18 0.6 0
18.3 0.6 0
18.6 0.6 0
18.9 0.6 0
19.2 0.6 0
19.5 0.6 0
19.8 0.6 0
20.1 0.6 0
20.4 0.6 0
20.7 0.6 0
21 0.6 0
21.3 0.6 0
21.6 0.6 0
21.9 0.6 0
22.2 0.6 0
22.5 0.6 0
22.8 0.6 0
23.1 0.6 0
23.4 0.6 0
23.7 0.6 0
24 0.6 0
24.3 0.6 0
24.6 0.6 0
24.9 0.6 0
25.2 0.6 0
25.5 0.6 0
25.8 0.6 0
26.1 0.6 0
26.4 0.6 0
26.7 0.6 0
27 0.6 0
27.3 0.6 0
27.6 0.6 0
27.9 0.6 0
28.2 0.6 0
28.5 0.6 0
28.8 0.6 0
29.1 0.6 0
29.4 0.6 0
29.7 0.6 0
30 0.6 0
30.3 0.6 0
0 0.7 0
0.3 0.7 0
0.6 0.7 0
0.9 0.7 0
1.2 0.7 0
1.5 0.7 0
1.8 0.7 0
2.1 0.7 0
2.4 0.7 0
2.7 0.7 0
3 0.7 0
3.3 0.7 0
3.6 0.7 0
3.9 0.7 0
4.2 0.7 0
4.5 0.7 0
4.8 0.7 0
5.1 0.7 0
5.4 0.7 0
5.7 0.7 0
6 0.7 0
6.3 0.7 0
6.6 0.7 0
6.9 0.7 0
7.2 0.7 0
7.5 0.7 0
7.8 0.7 0
8.1 0.7 0
8.4 0.7 0
8.7 0.7 0
9 0.7 0
9.3 0.7 0
9.6 0.7 0
9.9 0.7 0
10.2 0.7 0
10.5 0.7 0
10.8 0.7 0
11.1 0.7 0
11.4 0.7 0
11.7 0.7 0
12 0.7 0
12.3 0.7 0
12.6 0.7 0
12.9 0.7 0
13.2 0.7 0
13.5 0.7 0
13.8 0.7 0
14.1 0.7 0
14.4 0.7 0
14.7 0.7 0
15 0.7 0
15.3 0.7 0
15.6 0.7 0
15.9 0.7 0
16.2 0.7 0
16.5 0.7 0
16.8 0.7 0
17.1 0.7 0
17.4 0.7 0
17.7 0.7 0
18 0.7 0
18.3 0.7 0
18.6 0.7 0
18.9 0.7 0
19.2 0.7 0
19.5 0.7 0
19.8 0.7 0
20.1 0.7 0
20.4 0.7 0
20.7 0.7 0
21 0.7 0
21.3 0.7 0
21.6 0.7 0
21.9 0.7 0
22.2 0.7 0
22.5 0.7 0
22.8 0.7 0
23.1 0.7 0
23.4 0.7 0
23.7 0.7 0
24 0.7 0
24.3 0.7 0
24.6 0.7 0
24.9 0.7 0
25.2 0.7 0
25.5 0.7 0
25.8 0.7 0
26.1 0.7 0
26.4 0.7 0
26.7 0.7 0
27 0.7 0
27.3 0.7 0
27.6 0.7 0
27.9 0.7 0
28.2 0.7 0
28.5 0.7 0
28.8 0.7 0
29.1 0.7 0
29.4 0.7 0
29.7 0.7 0
30 0.7 0
30.3 0.7 0
0 0.8 0
0.3 0.8 0
0.6 0.8 0
0.9 0.8 0
1.2 0.8 0
1.5 0.8 0
1.8 0.8 0
2.1 0.8 0
2.4 0.8 0
2.7 0.8 0
3 0.8 0
3.3 0.8 0
3.6 0.8 0
3.9 0.8 0
4.2 0.8 0
4.5 0.8 0
4.8 0.8 0
5.1 0.8 0
5.4 0.8 0
5.7 0.8 0
6 0.8 0
6.3 0.8 0
6.6 0.8 0
6.9 0.8 0
7.2 0.8 0
7.5 0.8 0
7.8 0.8 0
8.1 0.8 0
8.4 0.8 0
8.7 0.8 0
9 0.8 0
9.3 0.8 0
9.6 0.8 0
9.9 0.8 0
10.2 0.8 0
10.5 0.8 0
10.8 0.8 0
11.1 0.8 0
11.4 0.8 0
11.7 0.8 0
12 0.8 0
12.3 0.8 0
12.6 0.8 0
12.9 0.8 0
13.2 0.8 0
13.5 0.8 0
13.8 0.8 0
14.1 0.8 0
14.4 0.8 0
14.7 0.8 0
15 0.8 0
15.3 0.8 0
15.6 0.8 0
15.9 0.8 0
16.2 0.8 0
16.5 0.8 0
16.8 0.8 0
17.1 0.8 0
17.4 0.8 0
17.7 0.8 0
18 0.8 0
18.3 0.8 0
18.6 0.8 0
18.9 0.8 0
19.2 0.8 0
19.5 0.8 0
19.8 0.8 0
20.1 0.8 0
20.4 0.8 0
20.7 0.8 0
21 0.8 0
21.3 0.8 0
21.6 0.8 0
21.9 0.8 0
22.2 0.8 0
22.5 0.8 0
22.8 0.8 0
23.1 0.8 0
23.4 0.8 0
23.7 0.8 0
24 0.8 0
24.3 0.8 0
24.6 0.8 0
24.9 0.8 0
25.2 0.8 0
25.5 0.8 0
25.8 0.8 0
26.1 0.8 0
26.4 0.8 0
26.7 0.8 0
27 0.8 0
27.3 0.8 0
27.6 0.8 0
27.9 0.8 0
28.2 0.8 0
28.5 0.8 0
28.8 0.8 0
29.1 0.8 0
29.4 0.8 0
29.7 0.8 0
30 0.8 0
30.3 0.8 0
0 0.9 0
0.3 0.9 0
0.6 0.9 0
0.9 0.9 0
1.2 0.9 0
1.5 0.9 0
1.8 0.9 0
2.1 0.9 0
2.4 0.9 0
2.7 0.9 0
3 0.9 0
3.3 0.9 0
3.6 0.9 0
3.9 0.9 0
4.2 0.9 0
4.5 0.9 0
4.8 0.9 0
5.1 0.9 0
5.4 0.9 0
5.7 0.9 0
6 0.9 0
6.3 0.9 0
6.6 0.9 0
6.9 0.9 0
7.2 0.9 0
7.5 0.9 0
7.8 0.9 0
8.1 0.9 0
8.4 0.9 0
8.7 0.9 0
9 0.9 0
9.3 0.9 0
9.6 0.9 0
9.9 0.9 0
10.2 0.9 0
10.5 0.9 0
10.8 0.9 0
11.1 0.9 0
11.4 0.9 0
11.7 0.9 0
12 0.9 0
12.3 0.9 0
12.6 0.9 0
12.9 0.9 0
13.2 0.9 0
13.5 0.9 0
13.8 0.9 0
14.1 0.9 0
14.4 0.9 0
14.7 0.9 0
15 0.9 0
15.3 0.9 0
15.6 0.9 0
15.9 0.9 0
16.2 0.9 0
16.5 0.9 0
16.8 0.9 0
17.1 0.9 0
17.4 0.9 0
17.7 0.9 0
18 0.9 0
18.3 0.9 0
18.6 0.9 0
18.9 0.9 0
19.2 0.9 0
19.5 0.9 0
19.8 0.9 0
20.1 0.9 0
20.4 0.9 0
20.7 0.9 0
21 0.9 0
21.3 0.9 0
21.6 0.9 0
21.9 0.9 0
22.2 0.9 0
22.5 0.9 0
22.8 0.9 0
23.1 0.9 0
23.4 0.9 0
23.7 0.9 0
24 0.9 0
24.3 0.9 0
24.6 0.9 0
24.9 0.9 0
25.2 0.9 0
25.5 0.9 0
25.8 0.9 0
26.1 0.9 0
26.4 0.9 0
26.7 0.9 0
27 0.9 0
27.3 0.9 0
27.6 0.9 0
27.9 0.9 0
28.2 0.9 0
28.5 0.9 0
28.8 0.9 0
29.1 0.9 0
29.4 0.9 0
29.7 0.9 0
30 0.9 0
30.3 0.9 0
0 1 0
0.3 1 0
0.6 1 0
0.9 1 0
1.2 1 0
1.5 1 0
1.8 1 0
2.1 1 0
2.4 1 0
2.7 1 0
3 1 0
3.3 1 0
3.6 1 0
3.9 1 0
4.2 1 0
4.5 1 0
4.8 1 0
5.1 1 0
5.4 1 0
5.7 1 0
6 1 0
6.3 1 0
6.6 1 0
6.9 1 0
7.2 1 0
7.5 1 0
7.8 1 0
8.1 1 0
8.4 1 0
8.7 1 0
9 1 0
9.3 1 0
9.6 1 0
9.9 1 0
10.2 1 0
10.5 1 0
10.8 1 0
11.1 1 0
11.4 1 0
11.7 1 0
12 1 0
12.3 1 0
12.6 1 0
12.9 1 0
13.2 1 0
13.5 1 0
13.8 1 0
14.1 1 0
14.4 1 0
14.7 1 0
15 1 0
15.3 1 0
15.6 1 0
15.9 1 0
16.2 1 0
16.5 1 0
16.8 1 0
17.1 1 0
17.4 1 0
17.7 1 0
18 1 0
18.3 1 0
18.6 1 0
18.9 1 0
19.2 1 0
19.5 1 0
19.8 1 0
20.1 1 0
20.4 1 0
20.7 1 0
21 1 0
21.3 1 0
21.6 1 0
21.9 1 0
22.2 1 0
22.5 1 0
22.8 1 0
23.1 1 0
23.4 1 0
23.7 1 0
24 1 0
24.3 1 0
24.6 1 0
24.9 1 0
25.2 1 0
25.5 1 0
25.8 1 0
26.1 1 0
26.4 1 0
26.7 1 0
27 1 0
27.3 1 0
27.6 1 0
27.9 1 0
28.2 1 0
28.5 1 0
28.8 1 0
29.1 1 0
29.4 1 0
29.7 1 0
30 1 0
30.3 1 0
0 1.1 0
0.3 1.1 0
0.6 1.1 0
0.9 1.1 0
1.2 1.1 0
1.5 1.1 0
1.8 1.1 0
2.1 1.1 0
2.4 1.1 0
2.7 1.1 0
3 1.1 0
3.3 1.1 0
3.6 1.1 0
3.9 1.1 0
4.2 1.1 0
4.5 1.1 0
4.8 1.1 0
5.1 1.1 0
5.4 1.1 0
5.7 1.1 0
6 1.1 0
6.3 1.1 0
6.6 1.1 0
6.9 1.1 0
7.2 1.1 0
7.5 1.1 0
7.8 1.1 0
8.1 1.1 0
8.4 1.1 0
8.7 1.1 0
9 1.1 0
9.3 1.1 0
9.6 1.1 0
9.9 1.1 0
10.2 1.1 0
10.5 1.1 0
10.8 1.1 0
11.1 1.1 0
11.4 1.1 0
11.7 1.1 0
12 1.1 0
12.3 1.1 0
12.6 1.1 0
12.9 1.1 0
13.2 1.1 0
13.5 1.1 0
13.8 1.1 0
14.1 1.1 0
14.4 1.1 0
14.7 1.1 0
15 1.1 0
15.3 1.1 0
15.6 1.1 0
15.9 1.1 0
16.2 1.1 0
16.5 1.1 0
16.8 1.1 0
17.1 1.1 0
17.4 1.1 0
17.7 1.1 0
18 1.1 0
18.3 1.1 0
18.6 1.1 0
18.9 1.1 0
19.2 1.1 0
19.5 1.1 0
19.8 1.1 0
20.1 1.1 0
20.4 1.1 0
20.7 1.1 0
21 1.1 0
21.3 1.1 0
21.6 1.1 0
21.9 1.1 0
22.2 1.1 0
22.5 1.1 0
22.8 1.1 0
23.1 1.1 0
23.4 1.1 0
23.7 1.1 0
24 1.1 0
24.3 1.1 0
24.6 1.1 0
24.9 1.1 0
25.2 1.1 0
25.5 1.1 0
25.8 1.1 0
26.1 1.1 0
26.4 1.1 0
26.7 1.1 0
27 1.1 0
27.3 1.1 0
27.6 1.1 0
27.9 1.1 0
28.2 1.1 0
28.5 1.1 0
28.8 1.1 0
29.1 1.1 0
29.4 1.1 0
29.7 1.1 0
30 1.1 0
30.3 1.1 0

POINT_DATA 1224

SCALARS u double
LOOKUP_TABLE default
-1
-0.890198
-0.775557
-0.678624
-0.605339
-0.557209
-0.5304
-0.517841
-0.512925
-0.511356
-0.510981
-0.51094
-0.51096
-0.510975
-0.51098
-0.510982
-0.510982
-0.510983
-0.510983
-0.510983
-0.510983
-0.510983
-0.510983
-0.510983
-0.510983
-0.510983
-0.510983
-0.510983
-0.510984
-0.510984
-0.510984
-0.510984
-0.510984
-0.510984
-0.510984
-0.510984
-0.510984
-0.510984
-0.510984
-0.510984
-0.510984
-0.510984
-0.510984
-0.510984
-0.510984
-0.510984
-0.510984
-0.510985
-0.510985
-0.510985
-0.510985
-0.510985
-0.510985
-0.510985
-0.510985
-0.510985
-0.510985
-0.510985
-0.510985
-0.510985
-0.510985
-0.510985
-0.510985
-0.510985
-0.510985
-0.510985
-0.510985
-0.510985
-0.510985
-0.510985
-0.510985
-0.510985
-0.510985
-0.510985
-0.510985
-0.510985
-0.510985
-0.510984
-0.510984
-0.510984
-0.510984
-0.510984
-0.510984
-0.510984
-0.510984
-0.510984
-0.510984
-0.510984
-0.510984
-0.510984
-0.510984
-0.510984
-0.510984
-0.510984
-0.510985
-0.510988
-0.510994
-0.511053
-0.511121
-0.511957
-0.511957
-1
1
0.890198
0.775557
0.678624
0.605339
0.557209
0.5304
0.517841
0.512925
0.511356
0.510981
0.51094
0.51096
0.510975
0.51098
0.510982
0.510982
0.510983
0.510983
0.510983
0.510983
0.510983
0.510983
0.510983
0.510983
0.510983
0.510983
0.510983
0.510984
0.510984
0.510984
0.510984
0.510984
0.510984
0.510984
0.510984
0.510984
0.510984
0.510984
0.510984
0.510984
0.510984
0.510984
0.510984
0.510984
0.510984
0.510984
0.510985
0.510985
0.510985
0.510985
0.510985
0.510985
0.510985
0.510985
0.510985
0.510985
0.510985
0.510985
0.510985
0.510985
0.510985
0.510985
0.510985
0.510985
0.510985
0.510985
0.510985
0.510985
0.510985
0.510985
0.510985
0.510985
0.510985
0.510985
0.510985
0.510985
0.510984
0.510984
0.510984
0.510984
0.510984
0.510984
0.510984
0.510984
0.510984
0.510984
0.510984
0.510984
0.510984
0.510984
0.510984
0.510984
0.510984
0.510985
0.510988
0.510994
0.511053
0.511121
0.511957
0.511957
1
1
1.02799
1.03219
1.02499
1.01511
1.00733
1.00302
1.00145
1.00134
1.00171
1.00209
1.00233
1.00245
1.0025
1.00252
1.00252
1.00253
1.00253
1.00253
1.00253
1.00253
1.00253
1.00253
1.00253
1.00253
1.00253
1.00253
1.00253
1.00253
1.00253
1.00253
1.00253
1.00253
1.00253
1.00253
1.00253
1.00253
1.00253
1.00253
1.00253
1.00253
1.00253
1.00253
1.00253
1.00253
1.00253
1.00253
1.00253
1.00253
1.00253
1.00253
1.00253
1.00253
1.00253
1.00253
1.00253
1.00253
1.00253
1.00253
1.00253
1.00253
1.00253
1.00253
1.00253
1.00253
1.00253
1.00253
1.00253
1.00253
1.00253
1.00253
1.00253
1.00253
1.00253
1.00253
1.00253
1.00253
1.00253
1.00253
1.00253
1.00253
1.00253
1.00253
1.00253
1.00253
1.00253
1.00253
1.00253
1.00253
1.00253
1.00253
1.00253
1.00253
1.00253
1.00253
1.00253
1.00253
1.00255
1.00257
1.00296
1.00296
1
1
1.03306
1.06805
1.09685
1.11796
1.13134
1.13839
1.14139
1.14233
1.14249
1.14244
1.14237
1.14233
1.14232
1.14232
1.14231
1.14231
1.14231
1.14231
1.14231
1.14231
1.14231
1.14231
1.14231
1.14231
1.14231
1.14231
1.14231
1.14231
1.14231
1.14231
1.14231
1.14231
1.14231
1.14231
1.14231
1.14231
1.14231
1.14231
1.14231
1.14231
1.14231
1.14231
1.14231
1.14231
1.14231
1.14231
1.14231
1.14231
1.14231
1.14231
1.14231
1.14231
1.14231
1.14231
1.14231
1.14231
1.14231
1.14231
1.14231
1.14231
1.14231
1.14231
1.14231
1.14231
1.14231
1.14231
1.14231
1.14231
1.14231
1.14231
1.14231
1.14231
1.14231
1.14231
1.14231
1.14231
1.14231
1.14231
1.14231
1.14231
1.14231
1.14231
1.14231
1.14231
1.14231
1.14231
1.14231
1.14231
1.14231
1.14231
1.14231
1.14231
1.14231
1.14231
1.14231
1.14231
1.14229
1.1423
1.14203
1.14203
1
1
1.02625
1.0645
1.1017
1.13182
1.15211
1.16331
1.16829
1.16997
1.17031
1.17024
1.17014
1.17007
1.17004
1.17003
1.17003
1.17002
1.17002
1.17002
1.17002
1.17002
1.17002
1.17002
1.17002
1.17002
1.17002
1.17002
1.17002
1.17002
1.17002
1.17002
1.17002
1.17002
1.17002
1.17002
1.17002
1.17002
1.17002
1.17002
1.17002
1.17002
1.17002
1.17002
1.17002
1.17002
1.17002
1.17002
1.17002
1.17002
1.17002
1.17002
1.17002
1.17002
1.17002
1.17002
1.17002
1.17002
1.17002
1.17002
1.17002
1.17002
1.17002
1.17002
1.17002
1.17002
1.17002
1.17002
1.17002
1.17002
1.17002
1.17002
1.17002
1.17002
1.17002
1.17002
1.17002
1.17002
1.17002
1.17002
1.17002
1.17002
1.17002
1.17002
1.17002
1.17002
1.17002
1.17002
1.17002
1.17002
1.17002
1.17002
1.17002
1.17002
1.17002
1.17002
1.17002
1.17001
1.16998
1.16995
1.16948
1.16948
1
1
1.02251
1.05972
1.09783
1.12977
1.15202
1.16488
1.17103
1.17343
1.17414
1.17426
1.17423
1.17419
1.17417
1.17416
1.17416
1.17416
1.17416
1.17416
1.17416
1.17416
1.17416
1.17416
1.17416
1.17416
1.17416
1.17416
1.17416
1.17416
1.17416
1.17416
1.17416
1.17416
1.17416
1.17416
1.17416
1.17416
1.17416
1.17416
1.17416
1.17416
1.17416
1.17416
1.17416
1.17416
1.17416
1.17416
1.17416
1.17416
1.17416
1.17416
1.17416
1.17416
1.17416
1.17416
1.17416
1.17416
1.17416
1.17416
1.17416
1.17416
1.17416
1.17416
1.17416
1.17416
1.17416
1.17416
1.17416
1.17416
1.17416
1.17416
1.17416
1.17416
1.17416
1.17416
1.17415
1.17415
1.17415
1.17415
1.17415
1.17415
1.17415
1.17415
1.17415
1.17415
1.17415
1.17415
1.17415
1.17415
1.17415
1.17415
1.17415
1.17415
1.17415
1.17415
1.17415
1.17414
1.17411
1.17404
1.17356
1.17356
1
1
1.02251
1.05972
1.09783
1.12977
1.15202
1.16488
1.17103
1.17343
1.17414
1.17426
1.17423
1.17419
1.17417
1.17416
1.17416
1.17416
1.17416
1.17416
1.17416
1.17416
1.17416
1.17416
1.17416
1.17416
1.17416
1.17416
1.17416
1.17416
1.17416
1.17416
1.17416
1.17416
1.17416
1.17416
1.17416
1.17416
1.17416
1.17416
1.17416
1.17416
1.17416
1.17416
1.17416
1.17416
1.17416
1.17416
1.17416
1.17416
1.17416
1.17416
1.17416
1.17416
1.17416
1.17416
1.17416
1.17416
1.17416
1.17416
1.17416
1.17416
1.17416
1.17416
1.17416
1.17416
1.17416
1.17416
1.17416
1.17416
1.17416
1.17416
1.17416
1.17416
1.17416
1.17415
1.17415
1.17415
1.17415
1.17415
1.17415
1.17415
1.17415
1.17415
1.17415
1.17415
1.17415
1.17415
1.17415
1.17415
1.17415
1.17415
1.17415
1.17415
1.17415
1.17415
1.17415
1.17414
1.17411
1.17404
1.17356
1.17356
1
1
1.02625
1.0645
1.1017
1.13182
1.15211
1.16331
1.16829
1.16997
1.17031
1.17024
1.17014
1.17007
1.17004
1.17003
1.17002
1.17002
1.17002
1.17002
1.17002
1.17002
1.17002
1.17002
1.17002
1.17002
1.17002
1.17002
1.17002
1.17002
1.17002
1.17002
1.17002
1.17002
1.17002
1.17002
1.17002
1.17002
1.17002
1.17002
1.17002
1.17002
1.17002
1.17002
1.17002
1.17002
1.17002
1.17002
1.17002
1.17002
1.17002
1.17002
1.17002
1.17002
1.17002
1.17002
1.17002
1.17002
1.17002
1.17002
1.17002
1.17002
1.17002
1.17002
1.17002
1.17002
1.17002
1.17002
1.17002
1.17002
1.17002
1.17002
1.17002
1.17002
1.17002
1.17002
1.17002
1.17002
1.17002
1.17002
1.17002
1.17002
1.17002
1.17002
1.17002
1.17002
1.17002
1.17002
1.17002
1.17002
1.17002
1.17002
1.17002
1.17002
1.17002
1.17002
1.17002
1.17001
1.16998
1.16995
1.16948
1.16948
1
1
1.03306
1.06805
1.09685
1.11796
1.13134
1.13839
1.14139
1.14233
1.14249
1.14244
1.14237
1.14233
1.14232
1.14232
1.14231
1.14231
1.14231
1.14231
1.14231
1.14231
1.14231
1.14231
1.14231
1.14231
1.14231
1.14231
1.14231
1.14231
1.14231
1.14231
1.14231
1.14231
1.14231
1.14231
1.14231
1.14231
1.14231
1.14231
1.14231
1.14231
1.14231
1.14231
1.14231
1.14231
1.14231
1.14231
1.14231
1.14231
1.14231
1.14231
1.14231
1.14231
1.14231
1.14231
1.14231
1.14231
1.14231
1.14231
1.14231
1.14231
1.14231
1.14231
1.14231
1.14231
1.14231
1.14231
1.14231
1.14231
1.14231
1.14231
1.14231
1.14231
1.14231
1.14231
1.14231
1.14231
1.14231
1.14231
1.14231
1.14231
1.14231
1.14231
1.14231
1.14231
1.14231
1.14231
1.14231
1.14231
1.14231
1.14231
1.14231
1.14231
1.14231
1.14231
1.14231
1.14231
1.14229
1.1423
1.14203
1.14203
1
1
1.02799
1.03219
1.02499
1.01511
1.00733
1.00301
1.00145
1.00134
1.00171
1.00209
1.00233
1.00245
1.0025
1.00252
1.00252
1.00253
1.00253
1.00253
1.00253
1.00253
1.00253
1.00253
1.00253
1.00253
1.00253
1.00253
1.00253
1.00253
1.00253
1.00253
1.00253
1.00253
1.00253
1.00253
1.00253
1.00253
1.00253
1.00253
1.00253
1.00253
1.00253
1.00253
1.00253
1.00253
1.00253
1.00253
1.00253
1.00253
1.00253
1.00253
1.00253
1.00253
1.00253
1.00253
1.00253
1.00253
1.00253
1.00253
1.00253
1.00253
1.00253
1.00253
1.00253
1.00253
1.00253
1.00253
1.00253
1.00253
1.00253
1.00253
1.00253
1.00253
1.00253
1.00253
1.00253
1.00253
1.00253
1.00253
1.00253
1.00253
1.00253
1.00253
1.00253
1.00253
1.00253
1.00253
1.00253
1.00253
1.00253
1.00252
1.00252
1.00252
1.00252
1.00252
1.00253
1.00253
1.00255
1.00257
1.00296
1.00296
1
1
0.890198
0.775557
0.678625
0.605339
0.557208
0.530399
0.517839
0.512923
0.511354
0.510979
0.510938
0.510958
0.510973
0.510978
0.51098
0.51098
0.510981
0.510981
0.510981
0.510981
0.510981
0.510981
0.510981
0.510981
0.510981
0.510981
0.510982
0.510982
0.510982
0.510982
0.510982
0.510982
0.510982
0.510982
0.510982
0.510982
0.510982
0.510982
0.510982
0.510982
0.510982
0.510982
0.510982
0.510983
0.510983
0.510983
0.510983
0.510983
0.510983
0.510983
0.510983
0.510983
0.510983
0.510983
0.510983
0.510983
0.510983
0.510983
0.510983
0.510983
0.510983
0.510983
0.510983
0.510983
0.510983
0.510983
0.510983
0.510983
0.510983
0.510983
0.510983
0.510983
0.510983
0.510983
0.510983
0.510983
0.510983
0.510983
0.510983
0.510983
0.510983
0.510983
0.510983
0.510983
0.510983
0.510983
0.510983
0.510983
0.510983
0.510983
0.510983
0.510983
0.510983
0.510983
0.510986
0.510992
0.511052
0.511119
0.511955
0.511955
1
-1
-0.890198
-0.775557
-0.678625
-0.605339
-0.557208
-0.530399
-0.517839
-0.512923
-0.511354
-0.510979
-0.510938
-0.510958
-0.510973
-0.510978
-0.51098
-0.51098
-0.510981
-0.510981
-0.510981
-0.510981
-0.510981
-0.510981
-0.510981
-0.510981
-0.510981
-0.510981
-0.510982
-0.510982
-0.510982
-0.510982
-0.510982
-0.510982
-0.510982
-0.510982
-0.510982
-0.510982
-0.510982
-0.510982
-0.510982
-0.510982
-0.510982
-0.510982
-0.510982
-0.510983
-0.510983
-0.510983
-0.510983
-0.510983
-0.510983
-0.510983
-0.510983
-0.510983
-0.510983
-0.510983
-0.510983
-0.510983
-0.510983
-0.510983
-0.510983
-0.510983
-0.510983
-0.510983
-0.510983
-0.510983
-0.510983
-0.510983
-0.510983
-0.510983
-0.510983
-0.510983
-0.510983
-0.510983
-0.510983
-0.510983
-0.510983
-0.510983
-0.510983
-0.510983
-0.510983
-0.510983
-0.510983
-0.510983
-0.510983
-0.510983
-0.510983
-0.510983
-0.510983
-0.510983
-0.510983
-0.510983
-0.510983
-0.510983
-0.510983
-0.510983
-0.510986
-0.510992
-0.511052
-0.511119
-0.511955
-0.511955
-1
