# vtk DataFile Version 2.0
FlowField
ASCII
DATASET STRUCTURED_GRID
DIMENSIONS 102 12 1 
POINTS 1224 double
0 0 0
0.3 0 0
0.6 0 0
0.9 0 0
1.2 0 0
1.5 0 0
1.8 0 0
2.1 0 0
2.4 0 0
2.7 0 0
3 0 0
3.3 0 0
3.6 0 0
3.9 0 0
4.2 0 0
4.5 0 0
4.8 0 0
5.1 0 0
5.4 0 0
5.7 0 0
6 0 0
6.3 0 0
6.6 0 0
6.9 0 0
7.2 0 0
7.5 0 0
7.8 0 0
8.1 0 0
8.4 0 0
8.7 0 0
9 0 0
9.3 0 0
9.6 0 0
9.9 0 0
10.2 0 0
10.5 0 0
10.8 0 0
11.1 0 0
11.4 0 0
11.7 0 0
12 0 0
12.3 0 0
12.6 0 0
12.9 0 0
13.2 0 0
13.5 0 0
13.8 0 0
14.1 0 0
14.4 0 0
14.7 0 0
15 0 0
15.3 0 0
15.6 0 0
15.9 0 0
16.2 0 0
16.5 0 0
16.8 0 0
17.1 0 0
17.4 0 0
17.7 0 0
18 0 0
18.3 0 0
18.6 0 0
18.9 0 0
19.2 0 0
19.5 0 0
19.8 0 0
20.1 0 0
20.4 0 0
20.7 0 0
21 0 0
21.3 0 0
21.6 0 0
21.9 0 0
22.2 0 0
22.5 0 0
22.8 0 0
23.1 0 0
23.4 0 0
23.7 0 0
24 0 0
24.3 0 0
24.6 0 0
24.9 0 0
25.2 0 0
25.5 0 0
25.8 0 0
26.1 0 0
26.4 0 0
26.7 0 0
27 0 0
27.3 0 0
27.6 0 0
27.9 0 0
28.2 0 0
28.5 0 0
28.8 0 0
29.1 0 0
29.4 0 0
29.7 0 0
30 0 0
30.3 0 0
0 0.1 0
0.3 0.1 0
0.6 0.1 0
0.9 0.1 0
1.2 0.1 0
1.5 0.1 0
1.8 0.1 0
2.1 0.1 0
2.4 0.1 0
2.7 0.1 0
3 0.1 0
3.3 0.1 0
3.6 0.1 0
3.9 0.1 0
4.2 0.1 0
4.5 0.1 0
4.8 0.1 0
5.1 0.1 0
5.4 0.1 0
5.7 0.1 0
6 0.1 0
6.3 0.1 0
6.6 0.1 0
6.9 0.1 0
7.2 0.1 0
7.5 0.1 0
7.8 0.1 0
8.1 0.1 0
8.4 0.1 0
8.7 0.1 0
9 0.1 0
9.3 0.1 0
9.6 0.1 0
9.9 0.1 0
10.2 0.1 0
10.5 0.1 0
10.8 0.1 0
11.1 0.1 0
11.4 0.1 0
11.7 0.1 0
12 0.1 0
12.3 0.1 0
12.6 0.1 0
12.9 0.1 0
13.2 0.1 0
13.5 0.1 0
13.8 0.1 0
14.1 0.1 0
14.4 0.1 0
14.7 0.1 0
15 0.1 0
15.3 0.1 0
15.6 0.1 0
15.9 0.1 0
16.2 0.1 0
16.5 0.1 0
16.8 0.1 0
17.1 0.1 0
17.4 0.1 0
17.7 0.1 0
18 0.1 0
18.3 0.1 0
18.6 0.1 0
18.9 0.1 0
19.2 0.1 0
19.5 0.1 0
19.8 0.1 0
20.1 0.1 0
20.4 0.1 0
20.7 0.1 0
21 0.1 0
21.3 0.1 0
21.6 0.1 0
21.9 0.1 0
22.2 0.1 0
22.5 0.1 0
22.8 0.1 0
23.1 0.1 0
23.4 0.1 0
23.7 0.1 0
24 0.1 0
24.3 0.1 0
24.6 0.1 0
24.9 0.1 0
25.2 0.1 0
25.5 0.1 0
25.8 0.1 0
26.1 0.1 0
26.4 0.1 0
26.7 0.1 0
27 0.1 0
27.3 0.1 0
27.6 0.1 0
27.9 0.1 0
28.2 0.1 0
28.5 0.1 0
28.8 0.1 0
29.1 0.1 0
29.4 0.1 0
29.7 0.1 0
30 0.1 0
30.3 0.1 0
0 0.2 0
0.3 0.2 0
0.6 0.2 0
0.9 0.2 0
1.2 0.2 0
1.5 0.2 0
1.8 0.2 0
2.1 0.2 0
2.4 0.2 0
2.7 0.2 0
3 0.2 0
3.3 0.2 0
3.6 0.2 0
3.9 0.2 0
4.2 0.2 0
4.5 0.2 0
4.8 0.2 0
5.1 0.2 0
5.4 0.2 0
5.7 0.2 0
6 0.2 0
6.3 0.2 0
6.6 0.2 0
6.9 0.2 0
7.2 0.2 0
7.5 0.2 0
7.8 0.2 0
8.1 0.2 0
8.4 0.2 0
8.7 0.2 0
9 0.2 0
9.3 0.2 0
9.6 0.2 0
9.9 0.2 0
10.2 0.2 0
10.5 0.2 0
10.8 0.2 0
11.1 0.2 0
11.4 0.2 0
11.7 0.2 0
12 0.2 0
12.3 0.2 0
12.6 0.2 0
12.9 0.2 0
13.2 0.2 0
13.5 0.2 0
13.8 0.2 0
14.1 0.2 0
14.4 0.2 0
14.7 0.2 0
15 0.2 0
15.3 0.2 0
15.6 0.2 0
15.9 0.2 0
16.2 0.2 0
16.5 0.2 0
16.8 0.2 0
17.1 0.2 0
17.4 0.2 0
17.7 0.2 0
18 0.2 0
18.3 0.2 0
18.6 0.2 0
18.9 0.2 0
19.2 0.2 0
19.5 0.2 0
19.8 0.2 0
20.1 0.2 0
20.4 0.2 0
20.7 0.2 0
21 0.2 0
21.3 0.2 0
21.6 0.2 0
21.9 0.2 0
22.2 0.2 0
22.5 0.2 0
22.8 0.2 0
23.1 0.2 0
23.4 0.2 0
23.7 0.2 0
24 0.2 0
24.3 0.2 0
24.6 0.2 0
24.9 0.2 0
25.2 0.2 0
25.5 0.2 0
25.8 0.2 0
26.1 0.2 0
26.4 0.2 0
26.7 0.2 0
27 0.2 0
27.3 0.2 0
27.6 0.2 0
27.9 0.2 0
28.2 0.2 0
28.5 0.2 0
28.8 0.2 0
29.1 0.2 0
29.4 0.2 0
29.7 0.2 0
30 0.2 0
30.3 0.2 0
0 0.3 0
0.3 0.3 0
0.6 0.3 0
0.9 0.3 0
1.2 0.3 0
1.5 0.3 0
1.8 0.3 0
2.1 0.3 0
2.4 0.3 0
2.7 0.3 0
3 0.3 0
3.3 0.3 0
3.6 0.3 0
3.9 0.3 0
4.2 0.3 0
4.5 0.3 0
4.8 0.3 0
5.1 0.3 0
5.4 0.3 0
5.7 0.3 0
6 0.3 0
6.3 0.3 0
6.6 0.3 0
6.9 0.3 0
7.2 0.3 0
7.5 0.3 0
7.8 0.3 0
8.1 0.3 0
8.4 0.3 0
8.7 0.3 0
9 0.3 0
9.3 0.3 0
9.6 0.3 0
9.9 0.3 0
10.2 0.3 0
10.5 0.3 0
10.8 0.3 0
11.1 0.3 0
11.4 0.3 0
11.7 0.3 0
12 0.3 0
12.3 0.3 0
12.6 0.3 0
12.9 0.3 0
13.2 0.3 0
13.5 0.3 0
13.8 0.3 0
14.1 0.3 0
14.4 0.3 0
14.7 0.3 0
15 0.3 0
15.3 0.3 0
15.6 0.3 0
15.9 0.3 0
16.2 0.3 0
16.5 0.3 0
16.8 0.3 0
17.1 0.3 0
17.4 0.3 0
17.7 0.3 0
18 0.3 0
18.3 0.3 0
18.6 0.3 0
18.9 0.3 0
19.2 0.3 0
19.5 0.3 0
19.8 0.3 0
20.1 0.3 0
20.4 0.3 0
20.7 0.3 0
21 0.3 0
21.3 0.3 0
21.6 0.3 0
21.9 0.3 0
22.2 0.3 0
22.5 0.3 0
22.8 0.3 0
23.1 0.3 0
23.4 0.3 0
23.7 0.3 0
24 0.3 0
24.3 0.3 0
24.6 0.3 0
24.9 0.3 0
25.2 0.3 0
25.5 0.3 0
25.8 0.3 0
26.1 0.3 0
26.4 0.3 0
26.7 0.3 0
27 0.3 0
27.3 0.3 0
27.6 0.3 0
27.9 0.3 0
28.2 0.3 0
28.5 0.3 0
28.8 0.3 0
29.1 0.3 0
29.4 0.3 0
29.7 0.3 0
30 0.3 0
30.3 0.3 0
0 0.4 0
0.3 0.4 0
0.6 0.4 0
0.9 0.4 0
1.2 0.4 0
1.5 0.4 0
1.8 0.4 0
2.1 0.4 0
2.4 0.4 0
2.7 0.4 0
3 0.4 0
3.3 0.4 0
3.6 0.4 0
3.9 0.4 0
4.2 0.4 0
4.5 0.4 0
4.8 0.4 0
5.1 0.4 0
5.4 0.4 0
5.7 0.4 0
6 0.4 0
6.3 0.4 0
6.6 0.4 0
6.9 0.4 0
7.2 0.4 0
7.5 0.4 0
7.8 0.4 0
8.1 0.4 0
8.4 0.4 0
8.7 0.4 0
9 0.4 0
9.3 0.4 0
9.6 0.4 0
9.9 0.4 0
10.2 0.4 0
10.5 0.4 0
10.8 0.4 0
11.1 0.4 0
11.4 0.4 0
11.7 0.4 0
12 0.4 0
12.3 0.4 0
12.6 0.4 0
12.9 0.4 0
13.2 0.4 0
13.5 0.4 0
13.8 0.4 0
14.1 0.4 0
14.4 0.4 0
14.7 0.4 0
15 0.4 0
15.3 0.4 0
15.6 0.4 0
15.9 0.4 0
16.2 0.4 0
16.5 0.4 0
16.8 0.4 0
17.1 0.4 0
17.4 0.4 0
17.7 0.4 0
18 0.4 0
18.3 0.4 0
18.6 0.4 0
18.9 0.4 0
19.2 0.4 0
19.5 0.4 0
19.8 0.4 0
20.1 0.4 0
20.4 0.4 0
20.7 0.4 0
21 0.4 0
21.3 0.4 0
21.6 0.4 0
21.9 0.4 0
22.2 0.4 0
22.5 0.4 0
22.8 0.4 0
23.1 0.4 0
23.4 0.4 0
23.7 0.4 0
24 0.4 0
24.3 0.4 0
24.6 0.4 0
24.9 0.4 0
25.2 0.4 0
25.5 0.4 0
25.8 0.4 0
26.1 0.4 0
26.4 0.4 0
26.7 0.4 0
27 0.4 0
27.3 0.4 0
27.6 0.4 0
27.9 0.4 0
28.2 0.4 0
28.5 0.4 0
28.8 0.4 0
29.1 0.4 0
29.4 0.4 0
29.7 0.4 0
30 0.4 0
30.3 0.4 0
0 0.5 0
0.3 0.5 0
0.6 0.5 0
0.9 0.5 0
1.2 0.5 0
1.5 0.5 0
1.8 0.5 0
2.1 0.5 0
2.4 0.5 0
2.7 0.5 0
3 0.5 0
3.3 0.5 0
3.6 0.5 0
3.9 0.5 0
4.2 0.5 0
4.5 0.5 0
4.8 0.5 0
5.1 0.5 0
5.4 0.5 0
5.7 0.5 0
6 0.5 0
6.3 0.5 0
6.6 0.5 0
6.9 0.5 0
7.2 0.5 0
7.5 0.5 0
7.8 0.5 0
8.1 0.5 0
8.4 0.5 0
8.7 0.5 0
9 0.5 0
9.3 0.5 0
9.6 0.5 0
9.9 0.5 0
10.2 0.5 0
10.5 0.5 0
10.8 0.5 0
11.1 0.5 0
11.4 0.5 0
11.7 0.5 0
12 0.5 0
12.3 0.5 0
12.6 0.5 0
12.9 0.5 0
13.2 0.5 0
13.5 0.5 0
13.8 0.5 0
14.1 0.5 0
14.4 0.5 0
14.7 0.5 0
15 0.5 0
15.3 0.5 0
15.6 0.5 0
15.9 0.5 0
16.2 0.5 0
16.5 0.5 0
16.8 0.5 0
17.1 0.5 0
17.4 0.5 0
17.7 0.5 0
18 0.5 0
18.3 0.5 0
18.6 0.5 0
18.9 0.5 0
19.2 0.5 0
19.5 0.5 0
19.8 0.5 0
20.1 0.5 0
20.4 0.5 0
20.7 0.5 0
21 0.5 0
21.3 0.5 0
21.6 0.5 0
21.9 0.5 0
22.2 0.5 0
22.5 0.5 0
22.8 0.5 0
23.1 0.5 0
23.4 0.5 0
23.7 0.5 0
24 0.5 0
24.3 0.5 0
24.6 0.5 0
24.9 0.5 0
25.2 0.5 0
25.5 0.5 0
25.8 0.5 0
26.1 0.5 0
26.4 0.5 0
26.7 0.5 0
27 0.5 0
27.3 0.5 0
27.6 0.5 0
27.9 0.5 0
28.2 0.5 0
28.5 0.5 0
28.8 0.5 0
29.1 0.5 0
29.4 0.5 0
29.7 0.5 0
30 0.5 0
30.3 0.5 0
0 0.6 0
0.3 0.6 0
0.6 0.6 0
0.9 0.6 0
1.2 0.6 0
1.5 0.6 0
1.8 0.6 0
2.1 0.6 0
2.4 0.6 0
2.7 0.6 0
3 0.6 0
3.3 0.6 0
3.6 0.6 0
3.9 0.6 0
4.2 0.6 0
4.5 0.6 0
4.8 0.6 0
5.1 0.6 0
5.4 0.6 0
5.7 0.6 0
6 0.6 0
6.3 0.6 0
6.6 0.6 0
6.9 0.6 0
7.2 0.6 0
7.5 0.6 0
7.8 0.6 0
8.1 0.6 0
8.4 0.6 0
8.7 0.6 0
9 0.6 0
9.3 0.6 0
9.6 0.6 0
9.9 0.6 0
10.2 0.6 0
10.5 0.6 0
10.8 0.6 0
11.1 0.6 0
11.4 0.6 0
11.7 0.6 0
12 0.6 0
12.3 0.6 0
12.6 0.6 0
12.9 0.6 0
13.2 0.6 0
13.5 0.6 0
13.8 0.6 0
14.1 0.6 0
14.4 0.6 0
14.7 0.6 0
15 0.6 0
15.3 0.6 0
15.6 0.6 0
15.9 0.6 0
16.2 0.6 0
16.5 0.6 0
16.8 0.6 0
17.1 0.6 0
17.4 0.6 0
17.7 0.6 0
18 0.6 0
18.3 0.6 0
18.6 0.6 0
18.9 0.6 0
19.2 0.6 0
19.5 0.6 0
19.8 0.6 0
20.1 0.6 0
20.4 0.6 0
20.7 0.6 0
21 0.6 0
21.3 0.6 0
21.6 0.6 0
21.9 0.6 0
22.2 0.6 0
22.5 0.6 0
22.8 0.6 0
23.1 0.6 0
23.4 0.6 0
23.7 0.6 0
24 0.6 0
24.3 0.6 0
24.6 0.6 0
24.9 0.6 0
25.2 0.6 0
25.5 0.6 0
25.8 0.6 0
26.1 0.6 0
26.4 0.6 0
26.7 0.6 0
27 0.6 0
27.3 0.6 0
27.6 0.6 0
27.9 0.6 0
28.2 0.6 0
28.5 0.6 0
28.8 0.6 0
29.1 0.6 0
29.4 0.6 0
29.7 0.6 0
30 0.6 0
30.3 0.6 0
0 0.7 0
0.3 0.7 0
0.6 0.7 0
0.9 0.7 0
1.2 0.7 0
1.5 0.7 0
1.8 0.7 0
2.1 0.7 0
2.4 0.7 0
2.7 0.7 0
3 0.7 0
3.3 0.7 0
3.6 0.7 0
3.9 0.7 0
4.2 0.7 0
4.5 0.7 0
4.8 0.7 0
5.1 0.7 0
5.4 0.7 0
5.7 0.7 0
6 0.7 0
6.3 0.7 0
6.6 0.7 0
6.9 0.7 0
7.2 0.7 0
7.5 0.7 0
7.8 0.7 0
8.1 0.7 0
8.4 0.7 0
8.7 0.7 0
9 0.7 0
9.3 0.7 0
9.6 0.7 0
9.9 0.7 0
10.2 0.7 0
10.5 0.7 0
10.8 0.7 0
11.1 0.7 0
11.4 0.7 0
11.7 0.7 0
12 0.7 0
12.3 0.7 0
12.6 0.7 0
12.9 0.7 0
13.2 0.7 0
13.5 0.7 0
13.8 0.7 0
14.1 0.7 0
14.4 0.7 0
14.7 0.7 0
15 0.7 0
15.3 0.7 0
15.6 0.7 0
15.9 0.7 0
16.2 0.7 0
16.5 0.7 0
16.8 0.7 0
17.1 0.7 0
17.4 0.7 0
17.7 0.7 0
18 0.7 0
18.3 0.7 0
18.6 0.7 0
18.9 0.7 0
19.2 0.7 0
19.5 0.7 0
19.8 0.7 0
20.1 0.7 0
20.4 0.7 0
20.7 0.7 0
21 0.7 0
21.3 0.7 0
21.6 0.7 0
21.9 0.7 0
22.2 0.7 0
22.5 0.7 0
22.8 0.7 0
23.1 0.7 0
23.4 0.7 0
23.7 0.7 0
24 0.7 0
24.3 0.7 0
24.6 0.7 0
24.9 0.7 0
25.2 0.7 0
25.5 0.7 0
25.8 0.7 0
26.1 0.7 0
26.4 0.7 0
26.7 0.7 0
27 0.7 0
27.3 0.7 0
27.6 0.7 0
27.9 0.7 0
28.2 0.7 0
28.5 0.7 0
28.8 0.7 0
29.1 0.7 0
29.4 0.7 0
29.7 0.7 0
30 0.7 0
30.3 0.7 0
0 0.8 0
0.3 0.8 0
0.6 0.8 0
0.9 0.8 0
1.2 0.8 0
1.5 0.8 0
1.8 0.8 0
2.1 0.8 0
2.4 0.8 0
2.7 0.8 0
3 0.8 0
3.3 0.8 0
3.6 0.8 0
3.9 0.8 0
4.2 0.8 0
4.5 0.8 0
4.8 0.8 0
5.1 0.8 0
5.4 0.8 0
5.7 0.8 0
6 0.8 0
6.3 0.8 0
6.6 0.8 0
6.9 0.8 0
7.2 0.8 0
7.5 0.8 0
7.8 0.8 0
8.1 0.8 0
8.4 0.8 0
8.7 0.8 0
9 0.8 0
9.3 0.8 0
9.6 0.8 0
9.9 0.8 0
10.2 0.8 0
10.5 0.8 0
10.8 0.8 0
11.1 0.8 0
11.4 0.8 0
11.7 0.8 0
12 0.8 0
12.3 0.8 0
12.6 0.8 0
12.9 0.8 0
13.2 0.8 0
13.5 0.8 0
13.8 0.8 0
14.1 0.8 0
14.4 0.8 0
14.7 0.8 0
15 0.8 0
15.3 0.8 0
15.6 0.8 0
15.9 0.8 0
16.2 0.8 0
16.5 0.8 0
16.8 0.8 0
17.1 0.8 0
17.4 0.8 0
17.7 0.8 0
18 0.8 0
18.3 0.8 0
18.6 0.8 0
18.9 0.8 0
19.2 0.8 0
19.5 0.8 0
19.8 0.8 0
20.1 0.8 0
20.4 0.8 0
20.7 0.8 0
21 0.8 0
21.3 0.8 0
21.6 0.8 0
21.9 0.8 0
22.2 0.8 0
22.5 0.8 0
22.8 0.8 0
23.1 0.8 0
23.4 0.8 0
23.7 0.8 0
24 0.8 0
24.3 0.8 0
24.6 0.8 0
24.9 0.8 0
25.2 0.8 0
25.5 0.8 0
25.8 0.8 0
26.1 0.8 0
26.4 0.8 0
26.7 0.8 0
27 0.8 0
27.3 0.8 0
27.6 0.8 0
27.9 0.8 0
28.2 0.8 0
28.5 0.8 0
28.8 0.8 0
29.1 0.8 0
29.4 0.8 0
29.7 0.8 0
30 0.8 0
30.3 0.8 0
0 0.9 0
0.3 0.9 0
0.6 0.9 0
0.9 0.9 0
1.2 0.9 0
1.5 0.9 0
1.8 0.9 0
2.1 0.9 0
2.4 0.9 0
2.7 0.9 0
3 0.9 0
3.3 0.9 0
3.6 0.9 0
3.9 0.9 0
4.2 0.9 0
4.5 0.9 0
4.8 0.9 0
5.1 0.9 0
5.4 0.9 0
5.7 0.9 0
6 0.9 0
6.3 0.9 0
6.6 0.9 0
6.9 0.9 0
7.2 0.9 0
7.5 0.9 0
7.8 0.9 0
8.1 0.9 0
8.4 0.9 0
8.7 0.9 0
9 0.9 0
9.3 0.9 0
9.6 0.9 0
9.9 0.9 0
10.2 0.9 0
10.5 0.9 0
10.8 0.9 0
11.1 0.9 0
11.4 0.9 0
11.7 0.9 0
12 0.9 0
12.3 0.9 0
12.6 0.9 0
12.9 0.9 0
13.2 0.9 0
13.5 0.9 0
13.8 0.9 0
14.1 0.9 0
14.4 0.9 0
14.7 0.9 0
15 0.9 0
15.3 0.9 0
15.6 0.9 0
15.9 0.9 0
16.2 0.9 0
16.5 0.9 0
16.8 0.9 0
17.1 0.9 0
17.4 0.9 0
17.7 0.9 0
18 0.9 0
18.3 0.9 0
18.6 0.9 0
18.9 0.9 0
19.2 0.9 0
19.5 0.9 0
19.8 0.9 0
20.1 0.9 0
20.4 0.9 0
20.7 0.9 0
21 0.9 0
21.3 0.9 0
21.6 0.9 0
21.9 0.9 0
22.2 0.9 0
22.5 0.9 0
22.8 0.9 0
23.1 0.9 0
23.4 0.9 0
23.7 0.9 0
24 0.9 0
24.3 0.9 0
24.6 0.9 0
24.9 0.9 0
25.2 0.9 0
25.5 0.9 0
25.8 0.9 0
26.1 0.9 0
26.4 0.9 0
26.7 0.9 0
27 0.9 0
27.3 0.9 0
27.6 0.9 0
27.9 0.9 0
28.2 0.9 0
28.5 0.9 0
28.8 0.9 0
29.1 0.9 0
29.4 0.9 0
29.7 0.9 0
30 0.9 0
30.3 0.9 0
0 1 0
0.3 1 0
0.6 1 0
0.9 1 0
1.2 1 0
1.5 1 0
1.8 1 0
2.1 1 0
2.4 1 0
2.7 1 0
3 1 0
3.3 1 0
3.6 1 0
3.9 1 0
4.2 1 0
4.5 1 0
4.8 1 0
5.1 1 0
5.4 1 0
5.7 1 0
6 1 0
6.3 1 0
6.6 1 0
6.9 1 0
7.2 1 0
7.5 1 0
7.8 1 0
8.1 1 0
8.4 1 0
8.7 1 0
9 1 0
9.3 1 0
9.6 1 0
9.9 1 0
10.2 1 0
10.5 1 0
10.8 1 0
11.1 1 0
11.4 1 0
11.7 1 0
12 1 0
12.3 1 0
12.6 1 0
12.9 1 0
13.2 1 0
13.5 1 0
13.8 1 0
14.1 1 0
14.4 1 0
14.7 1 0
15 1 0
15.3 1 0
15.6 1 0
15.9 1 0
16.2 1 0
16.5 1 0
16.8 1 0
17.1 1 0
17.4 1 0
17.7 1 0
18 1 0
18.3 1 0
18.6 1 0
18.9 1 0
19.2 1 0
19.5 1 0
19.8 1 0
20.1 1 0
20.4 1 0
20.7 1 0
21 1 0
21.3 1 0
21.6 1 0
21.9 1 0
22.2 1 0
22.5 1 0
22.8 1 0
23.1 1 0
23.4 1 0
23.7 1 0
24 1 0
24.3 1 0
24.6 1 0
24.9 1 0
25.2 1 0
25.5 1 0
25.8 1 0
26.1 1 0
26.4 1 0
26.7 1 0
27 1 0
27.3 1 0
27.6 1 0
27.9 1 0
28.2 1 0
28.5 1 0
28.8 1 0
29.1 1 0
29.4 1 0
29.7 1 0
30 1 0
30.3 1 0
0 1.1 0
0.3 1.1 0
0.6 1.1 0
0.9 1.1 0
1.2 1.1 0
1.5 1.1 0
1.8 1.1 0
2.1 1.1 0
2.4 1.1 0
2.7 1.1 0
3 1.1 0
3.3 1.1 0
3.6 1.1 0
3.9 1.1 0
4.2 1.1 0
4.5 1.1 0
4.8 1.1 0
5.1 1.1 0
5.4 1.1 0
5.7 1.1 0
6 1.1 0
6.3 1.1 0
6.6 1.1 0
6.9 1.1 0
7.2 1.1 0
7.5 1.1 0
7.8 1.1 0
8.1 1.1 0
8.4 1.1 0
8.7 1.1 0
9 1.1 0
9.3 1.1 0
9.6 1.1 0
9.9 1.1 0
10.2 1.1 0
10.5 1.1 0
10.8 1.1 0
11.1 1.1 0
11.4 1.1 0
11.7 1.1 0
12 1.1 0
12.3 1.1 0
12.6 1.1 0
12.9 1.1 0
13.2 1.1 0
13.5 1.1 0
13.8 1.1 0
14.1 1.1 0
14.4 1.1 0
14.7 1.1 0
15 1.1 0
15.3 1.1 0
15.6 1.1 0
15.9 1.1 0
16.2 1.1 0
16.5 1.1 0
16.8 1.1 0
17.1 1.1 0
17.4 1.1 0
17.7 1.1 0
18 1.1 0
18.3 1.1 0
18.6 1.1 0
18.9 1.1 0
19.2 1.1 0
19.5 1.1 0
19.8 1.1 0
20.1 1.1 0
20.4 1.1 0
20.7 1.1 0
21 1.1 0
21.3 1.1 0
21.6 1.1 0
21.9 1.1 0
22.2 1.1 0
22.5 1.1 0
22.8 1.1 0
23.1 1.1 0
23.4 1.1 0
23.7 1.1 0
24 1.1 0
24.3 1.1 0
24.6 1.1 0
24.9 1.1 0
25.2 1.1 0
25.5 1.1 0
25.8 1.1 0
26.1 1.1 0
26.4 1.1 0
26.7 1.1 0
27 1.1 0
27.3 1.1 0
27.6 1.1 0
27.9 1.1 0
28.2 1.1 0
28.5 1.1 0
28.8 1.1 0
29.1 1.1 0
29.4 1.1 0
29.7 1.1 0
30 1.1 0
30.3 1.1 0

POINT_DATA 1224

SCALARS u double
LOOKUP_TABLE default
-1
-0.890152
-0.775944
-0.678722
-0.600254
-0.538966
-0.49295
-0.460436
-0.439318
-0.426939
-0.420485
-0.417546
-0.416422
-0.416106
-0.416086
-0.41613
-0.416164
-0.416182
-0.41619
-0.416193
-0.416194
-0.416195
-0.416195
-0.416195
-0.416195
-0.416195
-0.416196
-0.416196
-0.416196
-0.416196
-0.416196
-0.416196
-0.416196
-0.416196
-0.416196
-0.416196
-0.416196
-0.416196
-0.416196
-0.416196
-0.416196
-0.416196
-0.416196
-0.416196
-0.416196
-0.416196
-0.416196
-0.416196
-0.416196
-0.416196
-0.416196
-0.416196
-0.416197
-0.416197
-0.416197
-0.416197
-0.416197
-0.416197
-0.416197
-0.416197
-0.416197
-0.416197
-0.416197
-0.416197
-0.416197
-0.416197
-0.416197
-0.416197
-0.416197
-0.416197
-0.416197
-0.416197
-0.416197
-0.416197
-0.416197
-0.416197
-0.416197
-0.416197
-0.416197
-0.416197
-0.416197
-0.416197
-0.416197
-0.416197
-0.416197
-0.416197
-0.416197
-0.416197
-0.416197
-0.416197
-0.416197
-0.416197
-0.416197
-0.416198
-0.416198
-0.416201
-0.416205
-0.416242
-0.416297
-0.416638
-0.416638
-1
1
0.890152
0.775944
0.678722
0.600254
0.538966
0.49295
0.460436
0.439318
0.426939
0.420485
0.417546
0.416422
0.416106
0.416086
0.41613
0.416164
0.416182
0.41619
0.416193
0.416194
0.416195
0.416195
0.416195
0.416195
0.416195
0.416196
0.416196
0.416196
0.416196
0.416196
0.416196
0.416196
0.416196
0.416196
0.416196
0.416196
0.416196
0.416196
0.416196
0.416196
0.416196
0.416196
0.416196
0.416196
0.416196
0.416196
0.416196
0.416196
0.416196
0.416196
0.416196
0.416197
0.416197
0.416197
0.416197
0.416197
0.416197
0.416197
0.416197
0.416197
0.416197
0.416197
0.416197
0.416197
0.416197
0.416197
0.416197
0.416197
0.416197
0.416197
0.416197
0.416197
0.416197
0.416197
0.416197
0.416197
0.416197
0.416197
0.416197
0.416197
0.416197
0.416197
0.416197
0.416197
0.416197
0.416197
0.416197
0.416197
0.416197
0.416197
0.416197
0.416197
0.416198
0.416198
0.416201
0.416205
0.416242
0.416297
0.416638
0.416638
1
1
1.02797
1.03244
1.02468
1.01097
0.994821
0.978754
0.964709
0.95387
0.946522
0.942201
0.940056
0.939223
0.939049
0.939119
0.939227
0.939312
0.939363
0.93939
0.939402
0.939408
0.93941
0.939411
0.939411
0.939411
0.939411
0.939411
0.939411
0.939411
0.939411
0.939411
0.939412
0.939412
0.939412
0.939412
0.939412
0.939412
0.939412
0.939412
0.939412
0.939412
0.939412
0.939412
0.939412
0.939412
0.939412
0.939412
0.939412
0.939412
0.939412
0.939412
0.939412
0.939412
0.939412
0.939412
0.939412
0.939412
0.939413
0.939413
0.939413
0.939413
0.939413
0.939413
0.939413
0.939413
0.939413
0.939413
0.939413
0.939413
0.939413
0.939413
0.939413
0.939413
0.939413
0.939413
0.939413
0.939413
0.939413
0.939413
0.939413
0.939413
0.939413
0.939413
0.939413
0.939413
0.939413
0.939413
0.939413
0.939413
0.939413
0.939413
0.939412
0.939412
0.939413
0.939413
0.939414
0.939415
0.939437
0.939435
0.939795
0.939795
1
1
1.03305
1.06793
1.0968
1.11909
1.13547
1.14691
1.15438
1.15882
1.16117
1.16224
1.16262
1.16271
1.16268
1.16263
1.16259
1.16257
1.16257
1.16257
1.16257
1.16257
1.16257
1.16257
1.16257
1.16257
1.16257
1.16257
1.16257
1.16257
1.16257
1.16257
1.16257
1.16257
1.16257
1.16257
1.16257
1.16257
1.16257
1.16257
1.16257
1.16257
1.16257
1.16257
1.16257
1.16257
1.16257
1.16257
1.16257
1.16257
1.16257
1.16257
1.16257
1.16257
1.16257
1.16257
1.16257
1.16257
1.16257
1.16257
1.16257
1.16257
1.16257
1.16257
1.16257
1.16257
1.16257
1.16257
1.16257
1.16257
1.16257
1.16257
1.16257
1.16257
1.16257
1.16257
1.16257
1.16257
1.16257
1.16257
1.16257
1.16257
1.16257
1.16257
1.16257
1.16257
1.16257
1.16257
1.16257
1.16257
1.16257
1.16257
1.16257
1.16257
1.16257
1.16257
1.16257
1.16257
1.16256
1.16256
1.16251
1.16251
1
1
1.02627
1.06422
1.10181
1.13563
1.16459
1.18816
1.20603
1.21837
1.22602
1.23017
1.23209
1.23278
1.2329
1.23283
1.23274
1.23267
1.23263
1.23261
1.2326
1.23259
1.23259
1.23259
1.23259
1.23259
1.23259
1.23259
1.23259
1.23259
1.23259
1.23259
1.23259
1.23259
1.23259
1.23259
1.23259
1.23259
1.23259
1.23259
1.23259
1.23259
1.23259
1.23259
1.23259
1.23259
1.23259
1.23259
1.23259
1.23259
1.23259
1.23259
1.23259
1.23259
1.23259
1.23259
1.23259
1.23259
1.23259
1.23259
1.23259
1.23259
1.23259
1.23259
1.23259
1.23259
1.23259
1.23259
1.23259
1.23259
1.23259
1.23259
1.23259
1.23259
1.23259
1.23259
1.23259
1.23259
1.23259
1.23259
1.23259
1.23259
1.23259
1.23259
1.23259
1.23259
1.23259
1.23259
1.23259
1.23259
1.23259
1.23259
1.23259
1.23259
1.23259
1.23259
1.23259
1.23258
1.23256
1.23255
1.23225
1.23225
1
1
1.02256
1.05947
1.09799
1.13406
1.16615
1.19323
1.21445
1.22962
1.23935
1.24491
1.24769
1.24887
1.24926
1.24934
1.24932
1.24929
1.24926
1.24925
1.24924
1.24924
1.24924
1.24924
1.24924
1.24924
1.24924
1.24924
1.24924
1.24924
1.24924
1.24924
1.24924
1.24924
1.24924
1.24924
1.24924
1.24924
1.24924
1.24924
1.24924
1.24924
1.24924
1.24924
1.24924
1.24924
1.24924
1.24924
1.24924
1.24924
1.24924
1.24924
1.24924
1.24924
1.24924
1.24924
1.24924
1.24924
1.24924
1.24924
1.24924
1.24924
1.24924
1.24924
1.24924
1.24924
1.24924
1.24924
1.24924
1.24924
1.24924
1.24924
1.24924
1.24924
1.24924
1.24924
1.24924
1.24924
1.24924
1.24924
1.24924
1.24924
1.24924
1.24924
1.24924
1.24924
1.24924
1.24924
1.24924
1.24924
1.24924
1.24924
1.24924
1.24924
1.24924
1.24924
1.24924
1.24923
1.24921
1.24918
1.24881
1.24881
1
1
1.02256
1.05947
1.09799
1.13406
1.16615
1.19323
1.21445
1.22962
1.23935
1.24491
1.24769
1.24887
1.24926
1.24934
1.24932
1.24929
1.24926
1.24925
1.24924
1.24924
1.24924
1.24924
1.24924
1.24924
1.24924
1.24924
1.24924
1.24924
1.24924
1.24924
1.24924
1.24924
1.24924
1.24924
1.24924
1.24924
1.24924
1.24924
1.24924
1.24924
1.24924
1.24924
1.24924
1.24924
1.24924
1.24924
1.24924
1.24924
1.24924
1.24924
1.24924
1.24924
1.24924
1.24924
1.24924
1.24924
1.24924
1.24924
1.24924
1.24924
1.24924
1.24924
1.24924
1.24924
1.24924
1.24924
1.24924
1.24924
1.24924
1.24924
1.24924
1.24924
1.24924
1.24924
1.24924
1.24924
1.24924
1.24924
1.24924
1.24924
1.24924
1.24924
1.24924
1.24924
1.24924
1.24924
1.24924
1.24924
1.24924
1.24924
1.24924
1.24924
1.24924
1.24924
1.24924
1.24923
1.24921
1.24918
1.24881
1.24881
1
1
1.02627
1.06422
1.10181
1.13563
1.16459
1.18816
1.20603
1.21837
1.22602
1.23017
1.23209
1.23278
1.2329
1.23283
1.23274
1.23267
1.23263
1.23261
1.2326
1.23259
1.23259
1.23259
1.23259
1.23259
1.23259
1.23259
1.23259
1.23259
1.23259
1.23259
1.23259
1.23259
1.23259
1.23259
1.23259
1.23259
1.23259
1.23259
1.23259
1.23259
1.23259
1.23259
1.23259
1.23259
1.23259
1.23259
1.23259
1.23259
1.23259
1.23259
1.23259
1.23259
1.23259
1.23259
1.23259
1.23259
1.23259
1.23259
1.23259
1.23259
1.23259
1.23259
1.23259
1.23259
1.23259
1.23259
1.23259
1.23259
1.23259
1.23259
1.23259
1.23259
1.23259
1.23259
1.23259
1.23259
1.23259
1.23259
1.23259
1.23259
1.23259
1.23259
1.23259
1.23259
1.23259
1.23259
1.23259
1.23259
1.23259
1.23259
1.23259
1.23259
1.23259
1.23259
1.23259
1.23258
1.23256
1.23255
1.23225
1.23225
1
1
1.03305
1.06793
1.0968
1.11909
1.13547
1.14691
1.15438
1.15882
1.16117
1.16224
1.16262
1.16271
1.16268
1.16263
1.16259
1.16257
1.16257
1.16257
1.16257
1.16257
1.16257
1.16257
1.16257
1.16257
1.16257
1.16257
1.16257
1.16257
1.16257
1.16257
1.16257
1.16257
1.16257
1.16257
1.16257
1.16257
1.16257
1.16257
1.16257
1.16257
1.16257
1.16257
1.16257
1.16257
1.16257
1.16257
1.16257
1.16257
1.16257
1.16257
1.16257
1.16257
1.16257
1.16257
1.16257
1.16257
1.16257
1.16257
1.16257
1.16257
1.16257
1.16257
1.16257
1.16257
1.16257
1.16257
1.16257
1.16257
1.16257
1.16257
1.16257
1.16257
1.16257
1.16257
1.16257
1.16257
1.16257
1.16257
1.16257
1.16257
1.16257
1.16257
1.16257
1.16257
1.16257
1.16257
1.16257
1.16257
1.16257
1.16257
1.16257
1.16257
1.16257
1.16257
1.16257
1.16257
1.16256
1.16255
1.16251
1.16251
1
1
1.02797
1.03244
1.02468
1.01097
0.994821
0.978755
0.964709
0.953869
0.946522
0.942201
0.940055
0.939223
0.939048
0.939118
0.939227
0.939311
0.939362
0.939389
0.939401
0.939407
0.939409
0.93941
0.93941
0.93941
0.93941
0.93941
0.93941
0.93941
0.93941
0.93941
0.939411
0.939411
0.939411
0.939411
0.939411
0.939411
0.939411
0.939411
0.939411
0.939411
0.939411
0.939411
0.939411
0.939411
0.939411
0.939411
0.939411
0.939411
0.939411
0.939411
0.939411
0.939411
0.939411
0.939411
0.939411
0.939411
0.939411
0.939412
0.939412
0.939412
0.939412
0.939412
0.939412
0.939412
0.939412
0.939412
0.939412
0.939412
0.939412
0.939412
0.939412
0.939412
0.939412
0.939412
0.939412
0.939412
0.939412
0.939412
0.939412
0.939412
0.939412
0.939412
0.939412
0.939412
0.939412
0.939412
0.939412
0.939412
0.939412
0.939412
0.939412
0.939412
0.939412
0.939412
0.939413
0.939414
0.939436
0.939434
0.939795
0.939795
1
1
0.890152
0.775945
0.678722
0.600254
0.538966
0.49295
0.460436
0.439318
0.426939
0.420485
0.417546
0.416422
0.416105
0.416086
0.41613
0.416164
0.416181
0.416189
0.416193
0.416194
0.416195
0.416195
0.416195
0.416195
0.416195
0.416195
0.416195
0.416195
0.416195
0.416195
0.416195
0.416195
0.416195
0.416195
0.416195
0.416195
0.416195
0.416195
0.416195
0.416195
0.416195
0.416196
0.416196
0.416196
0.416196
0.416196
0.416196
0.416196
0.416196
0.416196
0.416196
0.416196
0.416196
0.416196
0.416196
0.416196
0.416196
0.416196
0.416196
0.416196
0.416196
0.416196
0.416196
0.416196
0.416196
0.416196
0.416196
0.416196
0.416196
0.416196
0.416196
0.416196
0.416196
0.416196
0.416196
0.416196
0.416196
0.416196
0.416196
0.416196
0.416196
0.416196
0.416196
0.416196
0.416196
0.416196
0.416196
0.416196
0.416196
0.416196
0.416196
0.416196
0.416197
0.416197
0.4162
0.416204
0.416241
0.416296
0.416637
0.416637
1
-1
-0.890152
-0.775945
-0.678722
-0.600254
-0.538966
-0.49295
-0.460436
-0.439318
-0.426939
-0.420485
-0.417546
-0.416422
-0.416105
-0.416086
-0.41613
-0.416164
-0.416181
-0.416189
-0.416193
-0.416194
-0.416195
-0.416195
-0.416195
-0.416195
-0.416195
-0.416195
-0.416195
-0.416195
-0.416195
-0.416195
-0.416195
-0.416195
-0.416195
-0.416195
-0.416195
-0.416195
-0.416195
-0.416195
-0.416195
-0.416195
-0.416195
-0.416196
-0.416196
-0.416196
-0.416196
-0.416196
-0.416196
-0.416196
-0.416196
-0.416196
-0.416196
-0.416196
-0.416196
-0.416196
-0.416196
-0.416196
-0.416196
-0.416196
-0.416196
-0.416196
-0.416196
-0.416196
-0.416196
-0.416196
-0.416196
-0.416196
-0.416196
-0.416196
-0.416196
-0.416196
-0.416196
-0.416196
-0.416196
-0.416196
-0.416196
-0.416196
-0.416196
-0.416196
-0.416196
-0.416196
-0.416196
-0.416196
-0.416196
-0.416196
-0.416196
-0.416196
-0.416196
-0.416196
-0.416196
-0.416196
-0.416196
-0.416196
-0.416197
-0.416197
-0.4162
-0.416204
-0.416241
-0.416296
-0.416637
-0.416637
-1
