# vtk DataFile Version 2.0
FlowField
ASCII
DATASET STRUCTURED_GRID
DIMENSIONS 102 13 1 
POINTS 1326 double
0 0 0
0.3 0 0
0.6 0 0
0.9 0 0
1.2 0 0
1.5 0 0
1.8 0 0
2.1 0 0
2.4 0 0
2.7 0 0
3 0 0
3.3 0 0
3.6 0 0
3.9 0 0
4.2 0 0
4.5 0 0
4.8 0 0
5.1 0 0
5.4 0 0
5.7 0 0
6 0 0
6.3 0 0
6.6 0 0
6.9 0 0
7.2 0 0
7.5 0 0
7.8 0 0
8.1 0 0
8.4 0 0
8.7 0 0
9 0 0
9.3 0 0
9.6 0 0
9.9 0 0
10.2 0 0
10.5 0 0
10.8 0 0
11.1 0 0
11.4 0 0
11.7 0 0
12 0 0
12.3 0 0
12.6 0 0
12.9 0 0
13.2 0 0
13.5 0 0
13.8 0 0
14.1 0 0
14.4 0 0
14.7 0 0
15 0 0
15.3 0 0
15.6 0 0
15.9 0 0
16.2 0 0
16.5 0 0
16.8 0 0
17.1 0 0
17.4 0 0
17.7 0 0
18 0 0
18.3 0 0
18.6 0 0
18.9 0 0
19.2 0 0
19.5 0 0
19.8 0 0
20.1 0 0
20.4 0 0
20.7 0 0
21 0 0
21.3 0 0
21.6 0 0
21.9 0 0
22.2 0 0
22.5 0 0
22.8 0 0
23.1 0 0
23.4 0 0
23.7 0 0
24 0 0
24.3 0 0
24.6 0 0
24.9 0 0
25.2 0 0
25.5 0 0
25.8 0 0
26.1 0 0
26.4 0 0
26.7 0 0
27 0 0
27.3 0 0
27.6 0 0
27.9 0 0
28.2 0 0
28.5 0 0
28.8 0 0
29.1 0 0
29.4 0 0
29.7 0 0
30 0 0
30.3 0 0
0 0.1 0
0.3 0.1 0
0.6 0.1 0
0.9 0.1 0
1.2 0.1 0
1.5 0.1 0
1.8 0.1 0
2.1 0.1 0
2.4 0.1 0
2.7 0.1 0
3 0.1 0
3.3 0.1 0
3.6 0.1 0
3.9 0.1 0
4.2 0.1 0
4.5 0.1 0
4.8 0.1 0
5.1 0.1 0
5.4 0.1 0
5.7 0.1 0
6 0.1 0
6.3 0.1 0
6.6 0.1 0
6.9 0.1 0
7.2 0.1 0
7.5 0.1 0
7.8 0.1 0
8.1 0.1 0
8.4 0.1 0
8.7 0.1 0
9 0.1 0
9.3 0.1 0
9.6 0.1 0
9.9 0.1 0
10.2 0.1 0
10.5 0.1 0
10.8 0.1 0
11.1 0.1 0
11.4 0.1 0
11.7 0.1 0
12 0.1 0
12.3 0.1 0
12.6 0.1 0
12.9 0.1 0
13.2 0.1 0
13.5 0.1 0
13.8 0.1 0
14.1 0.1 0
14.4 0.1 0
14.7 0.1 0
15 0.1 0
15.3 0.1 0
15.6 0.1 0
15.9 0.1 0
16.2 0.1 0
16.5 0.1 0
16.8 0.1 0
17.1 0.1 0
17.4 0.1 0
17.7 0.1 0
18 0.1 0
18.3 0.1 0
18.6 0.1 0
18.9 0.1 0
19.2 0.1 0
19.5 0.1 0
19.8 0.1 0
20.1 0.1 0
20.4 0.1 0
20.7 0.1 0
21 0.1 0
21.3 0.1 0
21.6 0.1 0
21.9 0.1 0
22.2 0.1 0
22.5 0.1 0
22.8 0.1 0
23.1 0.1 0
23.4 0.1 0
23.7 0.1 0
24 0.1 0
24.3 0.1 0
24.6 0.1 0
24.9 0.1 0
25.2 0.1 0
25.5 0.1 0
25.8 0.1 0
26.1 0.1 0
26.4 0.1 0
26.7 0.1 0
27 0.1 0
27.3 0.1 0
27.6 0.1 0
27.9 0.1 0
28.2 0.1 0
28.5 0.1 0
28.8 0.1 0
29.1 0.1 0
29.4 0.1 0
29.7 0.1 0
30 0.1 0
30.3 0.1 0
0 0.2 0
0.3 0.2 0
0.6 0.2 0
0.9 0.2 0
1.2 0.2 0
1.5 0.2 0
1.8 0.2 0
2.1 0.2 0
2.4 0.2 0
2.7 0.2 0
3 0.2 0
3.3 0.2 0
3.6 0.2 0
3.9 0.2 0
4.2 0.2 0
4.5 0.2 0
4.8 0.2 0
5.1 0.2 0
5.4 0.2 0
5.7 0.2 0
6 0.2 0
6.3 0.2 0
6.6 0.2 0
6.9 0.2 0
7.2 0.2 0
7.5 0.2 0
7.8 0.2 0
8.1 0.2 0
8.4 0.2 0
8.7 0.2 0
9 0.2 0
9.3 0.2 0
9.6 0.2 0
9.9 0.2 0
10.2 0.2 0
10.5 0.2 0
10.8 0.2 0
11.1 0.2 0
11.4 0.2 0
11.7 0.2 0
12 0.2 0
12.3 0.2 0
12.6 0.2 0
12.9 0.2 0
13.2 0.2 0
13.5 0.2 0
13.8 0.2 0
14.1 0.2 0
14.4 0.2 0
14.7 0.2 0
15 0.2 0
15.3 0.2 0
15.6 0.2 0
15.9 0.2 0
16.2 0.2 0
16.5 0.2 0
16.8 0.2 0
17.1 0.2 0
17.4 0.2 0
17.7 0.2 0
18 0.2 0
18.3 0.2 0
18.6 0.2 0
18.9 0.2 0
19.2 0.2 0
19.5 0.2 0
19.8 0.2 0
20.1 0.2 0
20.4 0.2 0
20.7 0.2 0
21 0.2 0
21.3 0.2 0
21.6 0.2 0
21.9 0.2 0
22.2 0.2 0
22.5 0.2 0
22.8 0.2 0
23.1 0.2 0
23.4 0.2 0
23.7 0.2 0
24 0.2 0
24.3 0.2 0
24.6 0.2 0
24.9 0.2 0
25.2 0.2 0
25.5 0.2 0
25.8 0.2 0
26.1 0.2 0
26.4 0.2 0
26.7 0.2 0
27 0.2 0
27.3 0.2 0
27.6 0.2 0
27.9 0.2 0
28.2 0.2 0
28.5 0.2 0
28.8 0.2 0
29.1 0.2 0
29.4 0.2 0
29.7 0.2 0
30 0.2 0
30.3 0.2 0
0 0.3 0
0.3 0.3 0
0.6 0.3 0
0.9 0.3 0
1.2 0.3 0
1.5 0.3 0
1.8 0.3 0
2.1 0.3 0
2.4 0.3 0
2.7 0.3 0
3 0.3 0
3.3 0.3 0
3.6 0.3 0
3.9 0.3 0
4.2 0.3 0
4.5 0.3 0
4.8 0.3 0
5.1 0.3 0
5.4 0.3 0
5.7 0.3 0
6 0.3 0
6.3 0.3 0
6.6 0.3 0
6.9 0.3 0
7.2 0.3 0
7.5 0.3 0
7.8 0.3 0
8.1 0.3 0
8.4 0.3 0
8.7 0.3 0
9 0.3 0
9.3 0.3 0
9.6 0.3 0
9.9 0.3 0
10.2 0.3 0
10.5 0.3 0
10.8 0.3 0
11.1 0.3 0
11.4 0.3 0
11.7 0.3 0
12 0.3 0
12.3 0.3 0
12.6 0.3 0
12.9 0.3 0
13.2 0.3 0
13.5 0.3 0
13.8 0.3 0
14.1 0.3 0
14.4 0.3 0
14.7 0.3 0
15 0.3 0
15.3 0.3 0
15.6 0.3 0
15.9 0.3 0
16.2 0.3 0
16.5 0.3 0
16.8 0.3 0
17.1 0.3 0
17.4 0.3 0
17.7 0.3 0
18 0.3 0
18.3 0.3 0
18.6 0.3 0
18.9 0.3 0
19.2 0.3 0
19.5 0.3 0
19.8 0.3 0
20.1 0.3 0
20.4 0.3 0
20.7 0.3 0
21 0.3 0
21.3 0.3 0
21.6 0.3 0
21.9 0.3 0
22.2 0.3 0
22.5 0.3 0
22.8 0.3 0
23.1 0.3 0
23.4 0.3 0
23.7 0.3 0
24 0.3 0
24.3 0.3 0
24.6 0.3 0
24.9 0.3 0
25.2 0.3 0
25.5 0.3 0
25.8 0.3 0
26.1 0.3 0
26.4 0.3 0
26.7 0.3 0
27 0.3 0
27.3 0.3 0
27.6 0.3 0
27.9 0.3 0
28.2 0.3 0
28.5 0.3 0
28.8 0.3 0
29.1 0.3 0
29.4 0.3 0
29.7 0.3 0
30 0.3 0
30.3 0.3 0
0 0.4 0
0.3 0.4 0
0.6 0.4 0
0.9 0.4 0
1.2 0.4 0
1.5 0.4 0
1.8 0.4 0
2.1 0.4 0
2.4 0.4 0
2.7 0.4 0
3 0.4 0
3.3 0.4 0
3.6 0.4 0
3.9 0.4 0
4.2 0.4 0
4.5 0.4 0
4.8 0.4 0
5.1 0.4 0
5.4 0.4 0
5.7 0.4 0
6 0.4 0
6.3 0.4 0
6.6 0.4 0
6.9 0.4 0
7.2 0.4 0
7.5 0.4 0
7.8 0.4 0
8.1 0.4 0
8.4 0.4 0
8.7 0.4 0
9 0.4 0
9.3 0.4 0
9.6 0.4 0
9.9 0.4 0
10.2 0.4 0
10.5 0.4 0
10.8 0.4 0
11.1 0.4 0
11.4 0.4 0
11.7 0.4 0
12 0.4 0
12.3 0.4 0
12.6 0.4 0
12.9 0.4 0
13.2 0.4 0
13.5 0.4 0
13.8 0.4 0
14.1 0.4 0
14.4 0.4 0
14.7 0.4 0
15 0.4 0
15.3 0.4 0
15.6 0.4 0
15.9 0.4 0
16.2 0.4 0
16.5 0.4 0
16.8 0.4 0
17.1 0.4 0
17.4 0.4 0
17.7 0.4 0
18 0.4 0
18.3 0.4 0
18.6 0.4 0
18.9 0.4 0
19.2 0.4 0
19.5 0.4 0
19.8 0.4 0
20.1 0.4 0
20.4 0.4 0
20.7 0.4 0
21 0.4 0
21.3 0.4 0
21.6 0.4 0
21.9 0.4 0
22.2 0.4 0
22.5 0.4 0
22.8 0.4 0
23.1 0.4 0
23.4 0.4 0
23.7 0.4 0
24 0.4 0
24.3 0.4 0
24.6 0.4 0
24.9 0.4 0
25.2 0.4 0
25.5 0.4 0
25.8 0.4 0
26.1 0.4 0
26.4 0.4 0
26.7 0.4 0
27 0.4 0
27.3 0.4 0
27.6 0.4 0
27.9 0.4 0
28.2 0.4 0
28.5 0.4 0
28.8 0.4 0
29.1 0.4 0
29.4 0.4 0
29.7 0.4 0
30 0.4 0
30.3 0.4 0
0 0.5 0
0.3 0.5 0
0.6 0.5 0
0.9 0.5 0
1.2 0.5 0
1.5 0.5 0
1.8 0.5 0
2.1 0.5 0
2.4 0.5 0
2.7 0.5 0
3 0.5 0
3.3 0.5 0
3.6 0.5 0
3.9 0.5 0
4.2 0.5 0
4.5 0.5 0
4.8 0.5 0
5.1 0.5 0
5.4 0.5 0
5.7 0.5 0
6 0.5 0
6.3 0.5 0
6.6 0.5 0
6.9 0.5 0
7.2 0.5 0
7.5 0.5 0
7.8 0.5 0
8.1 0.5 0
8.4 0.5 0
8.7 0.5 0
9 0.5 0
9.3 0.5 0
9.6 0.5 0
9.9 0.5 0
10.2 0.5 0
10.5 0.5 0
10.8 0.5 0
11.1 0.5 0
11.4 0.5 0
11.7 0.5 0
12 0.5 0
12.3 0.5 0
12.6 0.5 0
12.9 0.5 0
13.2 0.5 0
13.5 0.5 0
13.8 0.5 0
14.1 0.5 0
14.4 0.5 0
14.7 0.5 0
15 0.5 0
15.3 0.5 0
15.6 0.5 0
15.9 0.5 0
16.2 0.5 0
16.5 0.5 0
16.8 0.5 0
17.1 0.5 0
17.4 0.5 0
17.7 0.5 0
18 0.5 0
18.3 0.5 0
18.6 0.5 0
18.9 0.5 0
19.2 0.5 0
19.5 0.5 0
19.8 0.5 0
20.1 0.5 0
20.4 0.5 0
20.7 0.5 0
21 0.5 0
21.3 0.5 0
21.6 0.5 0
21.9 0.5 0
22.2 0.5 0
22.5 0.5 0
22.8 0.5 0
23.1 0.5 0
23.4 0.5 0
23.7 0.5 0
24 0.5 0
24.3 0.5 0
24.6 0.5 0
24.9 0.5 0
25.2 0.5 0
25.5 0.5 0
25.8 0.5 0
26.1 0.5 0
26.4 0.5 0
26.7 0.5 0
27 0.5 0
27.3 0.5 0
27.6 0.5 0
27.9 0.5 0
28.2 0.5 0
28.5 0.5 0
28.8 0.5 0
29.1 0.5 0
29.4 0.5 0
29.7 0.5 0
30 0.5 0
30.3 0.5 0
0 0.6 0
0.3 0.6 0
0.6 0.6 0
0.9 0.6 0
1.2 0.6 0
1.5 0.6 0
1.8 0.6 0
2.1 0.6 0
2.4 0.6 0
2.7 0.6 0
3 0.6 0
3.3 0.6 0
3.6 0.6 0
3.9 0.6 0
4.2 0.6 0
4.5 0.6 0
4.8 0.6 0
5.1 0.6 0
5.4 0.6 0
5.7 0.6 0
6 0.6 0
6.3 0.6 0
6.6 0.6 0
6.9 0.6 0
7.2 0.6 0
7.5 0.6 0
7.8 0.6 0
8.1 0.6 0
8.4 0.6 0
8.7 0.6 0
9 0.6 0
9.3 0.6 0
9.6 0.6 0
9.9 0.6 0
10.2 0.6 0
10.5 0.6 0
10.8 0.6 0
11.1 0.6 0
11.4 0.6 0
11.7 0.6 0
12 0.6 0
12.3 0.6 0
12.6 0.6 0
12.9 0.6 0
13.2 0.6 0
13.5 0.6 0
13.8 0.6 0
14.1 0.6 0
14.4 0.6 0
14.7 0.6 0
15 0.6 0
15.3 0.6 0
15.6 0.6 0
15.9 0.6 0
16.2 0.6 0
16.5 0.6 0
16.8 0.6 0
17.1 0.6 0
17.4 0.6 0
17.7 0.6 0
18 0.6 0
18.3 0.6 0
18.6 0.6 0
18.9 0.6 0
19.2 0.6 0
19.5 0.6 0
19.8 0.6 0
20.1 0.6 0
20.4 0.6 0
20.7 0.6 0
21 0.6 0
21.3 0.6 0
21.6 0.6 0
21.9 0.6 0
22.2 0.6 0
22.5 0.6 0
22.8 0.6 0
23.1 0.6 0
23.4 0.6 0
23.7 0.6 0
24 0.6 0
24.3 0.6 0
24.6 0.6 0
24.9 0.6 0
25.2 0.6 0
25.5 0.6 0
25.8 0.6 0
26.1 0.6 0
26.4 0.6 0
26.7 0.6 0
27 0.6 0
27.3 0.6 0
27.6 0.6 0
27.9 0.6 0
28.2 0.6 0
28.5 0.6 0
28.8 0.6 0
29.1 0.6 0
29.4 0.6 0
29.7 0.6 0
30 0.6 0
30.3 0.6 0
0 0.7 0
0.3 0.7 0
0.6 0.7 0
0.9 0.7 0
1.2 0.7 0
1.5 0.7 0
1.8 0.7 0
2.1 0.7 0
2.4 0.7 0
2.7 0.7 0
3 0.7 0
3.3 0.7 0
3.6 0.7 0
3.9 0.7 0
4.2 0.7 0
4.5 0.7 0
4.8 0.7 0
5.1 0.7 0
5.4 0.7 0
5.7 0.7 0
6 0.7 0
6.3 0.7 0
6.6 0.7 0
6.9 0.7 0
7.2 0.7 0
7.5 0.7 0
7.8 0.7 0
8.1 0.7 0
8.4 0.7 0
8.7 0.7 0
9 0.7 0
9.3 0.7 0
9.6 0.7 0
9.9 0.7 0
10.2 0.7 0
10.5 0.7 0
10.8 0.7 0
11.1 0.7 0
11.4 0.7 0
11.7 0.7 0
12 0.7 0
12.3 0.7 0
12.6 0.7 0
12.9 0.7 0
13.2 0.7 0
13.5 0.7 0
13.8 0.7 0
14.1 0.7 0
14.4 0.7 0
14.7 0.7 0
15 0.7 0
15.3 0.7 0
15.6 0.7 0
15.9 0.7 0
16.2 0.7 0
16.5 0.7 0
16.8 0.7 0
17.1 0.7 0
17.4 0.7 0
17.7 0.7 0
18 0.7 0
18.3 0.7 0
18.6 0.7 0
18.9 0.7 0
19.2 0.7 0
19.5 0.7 0
19.8 0.7 0
20.1 0.7 0
20.4 0.7 0
20.7 0.7 0
21 0.7 0
21.3 0.7 0
21.6 0.7 0
21.9 0.7 0
22.2 0.7 0
22.5 0.7 0
22.8 0.7 0
23.1 0.7 0
23.4 0.7 0
23.7 0.7 0
24 0.7 0
24.3 0.7 0
24.6 0.7 0
24.9 0.7 0
25.2 0.7 0
25.5 0.7 0
25.8 0.7 0
26.1 0.7 0
26.4 0.7 0
26.7 0.7 0
27 0.7 0
27.3 0.7 0
27.6 0.7 0
27.9 0.7 0
28.2 0.7 0
28.5 0.7 0
28.8 0.7 0
29.1 0.7 0
29.4 0.7 0
29.7 0.7 0
30 0.7 0
30.3 0.7 0
0 0.8 0
0.3 0.8 0
0.6 0.8 0
0.9 0.8 0
1.2 0.8 0
1.5 0.8 0
1.8 0.8 0
2.1 0.8 0
2.4 0.8 0
2.7 0.8 0
3 0.8 0
3.3 0.8 0
3.6 0.8 0
3.9 0.8 0
4.2 0.8 0
4.5 0.8 0
4.8 0.8 0
5.1 0.8 0
5.4 0.8 0
5.7 0.8 0
6 0.8 0
6.3 0.8 0
6.6 0.8 0
6.9 0.8 0
7.2 0.8 0
7.5 0.8 0
7.8 0.8 0
8.1 0.8 0
8.4 0.8 0
8.7 0.8 0
9 0.8 0
9.3 0.8 0
9.6 0.8 0
9.9 0.8 0
10.2 0.8 0
10.5 0.8 0
10.8 0.8 0
11.1 0.8 0
11.4 0.8 0
11.7 0.8 0
12 0.8 0
12.3 0.8 0
12.6 0.8 0
12.9 0.8 0
13.2 0.8 0
13.5 0.8 0
13.8 0.8 0
14.1 0.8 0
14.4 0.8 0
14.7 0.8 0
15 0.8 0
15.3 0.8 0
15.6 0.8 0
15.9 0.8 0
16.2 0.8 0
16.5 0.8 0
16.8 0.8 0
17.1 0.8 0
17.4 0.8 0
17.7 0.8 0
18 0.8 0
18.3 0.8 0
18.6 0.8 0
18.9 0.8 0
19.2 0.8 0
19.5 0.8 0
19.8 0.8 0
20.1 0.8 0
20.4 0.8 0
20.7 0.8 0
21 0.8 0
21.3 0.8 0
21.6 0.8 0
21.9 0.8 0
22.2 0.8 0
22.5 0.8 0
22.8 0.8 0
23.1 0.8 0
23.4 0.8 0
23.7 0.8 0
24 0.8 0
24.3 0.8 0
24.6 0.8 0
24.9 0.8 0
25.2 0.8 0
25.5 0.8 0
25.8 0.8 0
26.1 0.8 0
26.4 0.8 0
26.7 0.8 0
27 0.8 0
27.3 0.8 0
27.6 0.8 0
27.9 0.8 0
28.2 0.8 0
28.5 0.8 0
28.8 0.8 0
29.1 0.8 0
29.4 0.8 0
29.7 0.8 0
30 0.8 0
30.3 0.8 0
0 0.9 0
0.3 0.9 0
0.6 0.9 0
0.9 0.9 0
1.2 0.9 0
1.5 0.9 0
1.8 0.9 0
2.1 0.9 0
2.4 0.9 0
2.7 0.9 0
3 0.9 0
3.3 0.9 0
3.6 0.9 0
3.9 0.9 0
4.2 0.9 0
4.5 0.9 0
4.8 0.9 0
5.1 0.9 0
5.4 0.9 0
5.7 0.9 0
6 0.9 0
6.3 0.9 0
6.6 0.9 0
6.9 0.9 0
7.2 0.9 0
7.5 0.9 0
7.8 0.9 0
8.1 0.9 0
8.4 0.9 0
8.7 0.9 0
9 0.9 0
9.3 0.9 0
9.6 0.9 0
9.9 0.9 0
10.2 0.9 0
10.5 0.9 0
10.8 0.9 0
11.1 0.9 0
11.4 0.9 0
11.7 0.9 0
12 0.9 0
12.3 0.9 0
12.6 0.9 0
12.9 0.9 0
13.2 0.9 0
13.5 0.9 0
13.8 0.9 0
14.1 0.9 0
14.4 0.9 0
14.7 0.9 0
15 0.9 0
15.3 0.9 0
15.6 0.9 0
15.9 0.9 0
16.2 0.9 0
16.5 0.9 0
16.8 0.9 0
17.1 0.9 0
17.4 0.9 0
17.7 0.9 0
18 0.9 0
18.3 0.9 0
18.6 0.9 0
18.9 0.9 0
19.2 0.9 0
19.5 0.9 0
19.8 0.9 0
20.1 0.9 0
20.4 0.9 0
20.7 0.9 0
21 0.9 0
21.3 0.9 0
21.6 0.9 0
21.9 0.9 0
22.2 0.9 0
22.5 0.9 0
22.8 0.9 0
23.1 0.9 0
23.4 0.9 0
23.7 0.9 0
24 0.9 0
24.3 0.9 0
24.6 0.9 0
24.9 0.9 0
25.2 0.9 0
25.5 0.9 0
25.8 0.9 0
26.1 0.9 0
26.4 0.9 0
26.7 0.9 0
27 0.9 0
27.3 0.9 0
27.6 0.9 0
27.9 0.9 0
28.2 0.9 0
28.5 0.9 0
28.8 0.9 0
29.1 0.9 0
29.4 0.9 0
29.7 0.9 0
30 0.9 0
30.3 0.9 0
0 1 0
0.3 1 0
0.6 1 0
0.9 1 0
1.2 1 0
1.5 1 0
1.8 1 0
2.1 1 0
2.4 1 0
2.7 1 0
3 1 0
3.3 1 0
3.6 1 0
3.9 1 0
4.2 1 0
4.5 1 0
4.8 1 0
5.1 1 0
5.4 1 0
5.7 1 0
6 1 0
6.3 1 0
6.6 1 0
6.9 1 0
7.2 1 0
7.5 1 0
7.8 1 0
8.1 1 0
8.4 1 0
8.7 1 0
9 1 0
9.3 1 0
9.6 1 0
9.9 1 0
10.2 1 0
10.5 1 0
10.8 1 0
11.1 1 0
11.4 1 0
11.7 1 0
12 1 0
12.3 1 0
12.6 1 0
12.9 1 0
13.2 1 0
13.5 1 0
13.8 1 0
14.1 1 0
14.4 1 0
14.7 1 0
15 1 0
15.3 1 0
15.6 1 0
15.9 1 0
16.2 1 0
16.5 1 0
16.8 1 0
17.1 1 0
17.4 1 0
17.7 1 0
18 1 0
18.3 1 0
18.6 1 0
18.9 1 0
19.2 1 0
19.5 1 0
19.8 1 0
20.1 1 0
20.4 1 0
20.7 1 0
21 1 0
21.3 1 0
21.6 1 0
21.9 1 0
22.2 1 0
22.5 1 0
22.8 1 0
23.1 1 0
23.4 1 0
23.7 1 0
24 1 0
24.3 1 0
24.6 1 0
24.9 1 0
25.2 1 0
25.5 1 0
25.8 1 0
26.1 1 0
26.4 1 0
26.7 1 0
27 1 0
27.3 1 0
27.6 1 0
27.9 1 0
28.2 1 0
28.5 1 0
28.8 1 0
29.1 1 0
29.4 1 0
29.7 1 0
30 1 0
30.3 1 0
0 1.1 0
0.3 1.1 0
0.6 1.1 0
0.9 1.1 0
1.2 1.1 0
1.5 1.1 0
1.8 1.1 0
2.1 1.1 0
2.4 1.1 0
2.7 1.1 0
3 1.1 0
3.3 1.1 0
3.6 1.1 0
3.9 1.1 0
4.2 1.1 0
4.5 1.1 0
4.8 1.1 0
5.1 1.1 0
5.4 1.1 0
5.7 1.1 0
6 1.1 0
6.3 1.1 0
6.6 1.1 0
6.9 1.1 0
7.2 1.1 0
7.5 1.1 0
7.8 1.1 0
8.1 1.1 0
8.4 1.1 0
8.7 1.1 0
9 1.1 0
9.3 1.1 0
9.6 1.1 0
9.9 1.1 0
10.2 1.1 0
10.5 1.1 0
10.8 1.1 0
11.1 1.1 0
11.4 1.1 0
11.7 1.1 0
12 1.1 0
12.3 1.1 0
12.6 1.1 0
12.9 1.1 0
13.2 1.1 0
13.5 1.1 0
13.8 1.1 0
14.1 1.1 0
14.4 1.1 0
14.7 1.1 0
15 1.1 0
15.3 1.1 0
15.6 1.1 0
15.9 1.1 0
16.2 1.1 0
16.5 1.1 0
16.8 1.1 0
17.1 1.1 0
17.4 1.1 0
17.7 1.1 0
18 1.1 0
18.3 1.1 0
18.6 1.1 0
18.9 1.1 0
19.2 1.1 0
19.5 1.1 0
19.8 1.1 0
20.1 1.1 0
20.4 1.1 0
20.7 1.1 0
21 1.1 0
21.3 1.1 0
21.6 1.1 0
21.9 1.1 0
22.2 1.1 0
22.5 1.1 0
22.8 1.1 0
23.1 1.1 0
23.4 1.1 0
23.7 1.1 0
24 1.1 0
24.3 1.1 0
24.6 1.1 0
24.9 1.1 0
25.2 1.1 0
25.5 1.1 0
25.8 1.1 0
26.1 1.1 0
26.4 1.1 0
26.7 1.1 0
27 1.1 0
27.3 1.1 0
27.6 1.1 0
27.9 1.1 0
28.2 1.1 0
28.5 1.1 0
28.8 1.1 0
29.1 1.1 0
29.4 1.1 0
29.7 1.1 0
30 1.1 0
30.3 1.1 0
0 1.2 0
0.3 1.2 0
0.6 1.2 0
0.9 1.2 0
1.2 1.2 0
1.5 1.2 0
1.8 1.2 0
2.1 1.2 0
2.4 1.2 0
2.7 1.2 0
3 1.2 0
3.3 1.2 0
3.6 1.2 0
3.9 1.2 0
4.2 1.2 0
4.5 1.2 0
4.8 1.2 0
5.1 1.2 0
5.4 1.2 0
5.7 1.2 0
6 1.2 0
6.3 1.2 0
6.6 1.2 0
6.9 1.2 0
7.2 1.2 0
7.5 1.2 0
7.8 1.2 0
8.1 1.2 0
8.4 1.2 0
8.7 1.2 0
9 1.2 0
9.3 1.2 0
9.6 1.2 0
9.9 1.2 0
10.2 1.2 0
10.5 1.2 0
10.8 1.2 0
11.1 1.2 0
11.4 1.2 0
11.7 1.2 0
12 1.2 0
12.3 1.2 0
12.6 1.2 0
12.9 1.2 0
13.2 1.2 0
13.5 1.2 0
13.8 1.2 0
14.1 1.2 0
14.4 1.2 0
14.7 1.2 0
15 1.2 0
15.3 1.2 0
15.6 1.2 0
15.9 1.2 0
16.2 1.2 0
16.5 1.2 0
16.8 1.2 0
17.1 1.2 0
17.4 1.2 0
17.7 1.2 0
18 1.2 0
18.3 1.2 0
18.6 1.2 0
18.9 1.2 0
19.2 1.2 0
19.5 1.2 0
19.8 1.2 0
20.1 1.2 0
20.4 1.2 0
20.7 1.2 0
21 1.2 0
21.3 1.2 0
21.6 1.2 0
21.9 1.2 0
22.2 1.2 0
22.5 1.2 0
22.8 1.2 0
23.1 1.2 0
23.4 1.2 0
23.7 1.2 0
24 1.2 0
24.3 1.2 0
24.6 1.2 0
24.9 1.2 0
25.2 1.2 0
25.5 1.2 0
25.8 1.2 0
26.1 1.2 0
26.4 1.2 0
26.7 1.2 0
27 1.2 0
27.3 1.2 0
27.6 1.2 0
27.9 1.2 0
28.2 1.2 0
28.5 1.2 0
28.8 1.2 0
29.1 1.2 0
29.4 1.2 0
29.7 1.2 0
30 1.2 0
30.3 1.2 0

POINT_DATA 1326

SCALARS p double
LOOKUP_TABLE default
1.22493
1.22493
1.16009
1.11585
1.07603
1.03945
1.0064
0.976875
0.95052
0.926811
0.905208
0.885253
0.866599
0.849011
0.832343
0.816504
0.801433
0.787071
0.773347
0.760173
0.747447
0.735065
0.72293
0.710961
0.699099
0.687299
0.675536
0.663792
0.652058
0.640329
0.628603
0.616879
0.605155
0.593431
0.581708
0.569985
0.558262
0.546539
0.534816
0.523093
0.51137
0.499647
0.487924
0.476201
0.464479
0.452756
0.441033
0.42931
0.417587
0.405864
0.394141
0.382418
0.370695
0.358973
0.34725
0.335527
0.323804
0.312081
0.300358
0.288635
0.276912
0.26519
0.253467
0.241744
0.230021
0.218298
0.206575
0.194852
0.183129
0.171406
0.159684
0.147961
0.136238
0.124515
0.112792
0.101069
0.0893464
0.0776235
0.0659006
0.0541778
0.0424549
0.030732
0.0190092
0.00728631
-0.00443656
-0.0161594
-0.0278823
-0.0396052
-0.051328
-0.0630509
-0.0747737
-0.0864966
-0.0982195
-0.109942
-0.121665
-0.133388
-0.145111
-0.156833
-0.168556
-0.18028
-0.191952
0.191952
1.22493
1.22493
1.16009
1.11585
1.07603
1.03945
1.0064
0.976875
0.95052
0.926811
0.905208
0.885253
0.866599
0.849011
0.832343
0.816504
0.801433
0.787071
0.773347
0.760173
0.747447
0.735065
0.72293
0.710961
0.699099
0.687299
0.675536
0.663792
0.652058
0.640329
0.628603
0.616879
0.605155
0.593431
0.581708
0.569985
0.558262
0.546539
0.534816
0.523093
0.51137
0.499647
0.487924
0.476201
0.464479
0.452756
0.441033
0.42931
0.417587
0.405864
0.394141
0.382418
0.370695
0.358973
0.34725
0.335527
0.323804
0.312081
0.300358
0.288635
0.276912
0.26519
0.253467
0.241744
0.230021
0.218298
0.206575
0.194852
0.183129
0.171406
0.159684
0.147961
0.136238
0.124515
0.112792
0.101069
0.0893464
0.0776235
0.0659006
0.0541778
0.0424549
0.030732
0.0190092
0.00728631
-0.00443656
-0.0161594
-0.0278823
-0.0396052
-0.051328
-0.0630509
-0.0747737
-0.0864966
-0.0982195
-0.109942
-0.121665
-0.133388
-0.145111
-0.156833
-0.168556
-0.18028
-0.191952
0.191952
1.20399
1.20399
1.1581
1.11608
1.07673
1.04025
1.00715
0.977506
0.951027
0.927206
0.905511
0.885484
0.866775
0.849145
0.832441
0.816573
0.801478
0.787097
0.77336
0.760177
0.747447
0.735062
0.722927
0.710959
0.699097
0.687298
0.675535
0.663792
0.652058
0.640329
0.628603
0.616879
0.605155
0.593431
0.581708
0.569985
0.558262
0.546539
0.534816
0.523093
0.51137
0.499647
0.487924
0.476201
0.464479
0.452756
0.441033
0.42931
0.417587
0.405864
0.394141
0.382418
0.370695
0.358973
0.34725
0.335527
0.323804
0.312081
0.300358
0.288635
0.276912
0.26519
0.253467
0.241744
0.230021
0.218298
0.206575
0.194852
0.183129
0.171406
0.159684
0.147961
0.136238
0.124515
0.112792
0.101069
0.0893464
0.0776235
0.0659006
0.0541778
0.0424549
0.030732
0.0190092
0.00728631
-0.00443656
-0.0161594
-0.0278823
-0.0396052
-0.051328
-0.0630509
-0.0747737
-0.0864966
-0.0982195
-0.109942
-0.121665
-0.133388
-0.145111
-0.156832
-0.168555
-0.18028
-0.19195
0.19195
1.18901
1.18901
1.15522
1.11631
1.07784
1.04157
1.00841
0.978584
0.951888
0.927865
0.906005
0.885851
0.86705
0.849353
0.8326
0.816694
0.801568
0.787163
0.773407
0.760209
0.747467
0.735074
0.722933
0.710962
0.699098
0.687299
0.675535
0.663792
0.652058
0.640329
0.628603
0.616878
0.605155
0.593431
0.581708
0.569985
0.558262
0.546539
0.534816
0.523093
0.51137
0.499647
0.487924
0.476201
0.464479
0.452756
0.441033
0.42931
0.417587
0.405864
0.394141
0.382418
0.370695
0.358973
0.34725
0.335527
0.323804
0.312081
0.300358
0.288635
0.276912
0.26519
0.253467
0.241744
0.230021
0.218298
0.206575
0.194852
0.183129
0.171406
0.159684
0.147961
0.136238
0.124515
0.112792
0.101069
0.0893464
0.0776235
0.0659006
0.0541778
0.0424549
0.030732
0.0190092
0.00728631
-0.00443656
-0.0161594
-0.0278823
-0.0396052
-0.051328
-0.0630509
-0.0747737
-0.0864966
-0.0982195
-0.109942
-0.121665
-0.133388
-0.14511
-0.156831
-0.16855
-0.180262
-0.191941
0.191941
1.17944
1.17944
1.15273
1.11642
1.0788
1.04277
1.00958
0.979621
0.952741
0.928538
0.906524
0.886251
0.867363
0.849603
0.832805
0.816865
0.801711
0.78728
0.773499
0.760279
0.747517
0.735109
0.722955
0.710975
0.699106
0.687303
0.675537
0.663792
0.652058
0.640329
0.628603
0.616878
0.605155
0.593431
0.581708
0.569985
0.558262
0.546539
0.534816
0.523093
0.51137
0.499647
0.487924
0.476201
0.464479
0.452756
0.441033
0.42931
0.417587
0.405864
0.394141
0.382418
0.370695
0.358973
0.34725
0.335527
0.323804
0.312081
0.300358
0.288635
0.276912
0.26519
0.253467
0.241744
0.230021
0.218298
0.206575
0.194852
0.183129
0.171406
0.159684
0.147961
0.136238
0.124515
0.112792
0.101069
0.0893464
0.0776235
0.0659006
0.0541778
0.0424549
0.030732
0.0190092
0.00728631
-0.00443656
-0.0161594
-0.0278823
-0.0396052
-0.051328
-0.0630509
-0.0747737
-0.0864966
-0.0982195
-0.109942
-0.121665
-0.133388
-0.145109
-0.156828
-0.168542
-0.180228
-0.191927
0.191927
1.17412
1.17412
1.1511
1.11644
1.07939
1.04354
1.01035
0.98031
0.953319
0.929002
0.90689
0.88654
0.867594
0.849794
0.832967
0.817005
0.801832
0.787382
0.773583
0.760345
0.747567
0.735143
0.722978
0.71099
0.699114
0.687307
0.67554
0.663794
0.652059
0.64033
0.628603
0.616879
0.605155
0.593431
0.581708
0.569985
0.558262
0.546539
0.534816
0.523093
0.51137
0.499647
0.487924
0.476201
0.464479
0.452756
0.441033
0.42931
0.417587
0.405864
0.394141
0.382418
0.370695
0.358973
0.34725
0.335527
0.323804
0.312081
0.300358
0.288635
0.276912
0.26519
0.253467
0.241744
0.230021
0.218298
0.206575
0.194852
0.183129
0.171406
0.159684
0.147961
0.136238
0.124515
0.112792
0.101069
0.0893464
0.0776235
0.0659006
0.0541778
0.0424549
0.030732
0.0190092
0.00728631
-0.00443656
-0.0161594
-0.0278823
-0.0396052
-0.051328
-0.0630509
-0.0747737
-0.0864966
-0.0982195
-0.109942
-0.121665
-0.133387
-0.145109
-0.156827
-0.168534
-0.180198
-0.191914
0.191914
1.17242
1.17242
1.15056
1.11645
1.0796
1.04381
1.01063
0.980556
0.953526
0.929169
0.907023
0.886646
0.86768
0.849866
0.833029
0.817058
0.801878
0.787422
0.773616
0.760371
0.747586
0.735157
0.722988
0.710996
0.699118
0.687309
0.675541
0.663794
0.652059
0.64033
0.628603
0.616879
0.605155
0.593431
0.581708
0.569985
0.558262
0.546539
0.534816
0.523093
0.51137
0.499647
0.487924
0.476201
0.464479
0.452756
0.441033
0.42931
0.417587
0.405864
0.394141
0.382418
0.370695
0.358973
0.34725
0.335527
0.323804
0.312081
0.300358
0.288635
0.276912
0.26519
0.253467
0.241744
0.230021
0.218298
0.206575
0.194852
0.183129
0.171406
0.159684
0.147961
0.136238
0.124515
0.112792
0.101069
0.0893464
0.0776235
0.0659006
0.0541778
0.0424549
0.030732
0.0190092
0.00728631
-0.00443656
-0.0161594
-0.0278823
-0.0396052
-0.051328
-0.0630509
-0.0747737
-0.0864966
-0.0982194
-0.109942
-0.121665
-0.133387
-0.145109
-0.156826
-0.168532
-0.180186
-0.191909
0.191909
1.17412
1.17412
1.1511
1.11644
1.07939
1.04354
1.01035
0.98031
0.953319
0.929002
0.90689
0.88654
0.867594
0.849794
0.832967
0.817005
0.801832
0.787382
0.773583
0.760345
0.747567
0.735143
0.722978
0.71099
0.699114
0.687307
0.67554
0.663794
0.652059
0.64033
0.628603
0.616879
0.605155
0.593431
0.581708
0.569985
0.558262
0.546539
0.534816
0.523093
0.51137
0.499647
0.487924
0.476201
0.464479
0.452756
0.441033
0.42931
0.417587
0.405864
0.394141
0.382418
0.370695
0.358973
0.34725
0.335527
0.323804
0.312081
0.300358
0.288635
0.276912
0.26519
0.253467
0.241744
0.230021
0.218298
0.206575
0.194852
0.183129
0.171406
0.159684
0.147961
0.136238
0.124515
0.112792
0.101069
0.0893464
0.0776235
0.0659006
0.0541778
0.0424549
0.030732
0.0190092
0.00728631
-0.00443656
-0.0161594
-0.0278823
-0.0396052
-0.051328
-0.0630509
-0.0747737
-0.0864966
-0.0982195
-0.109942
-0.121665
-0.133387
-0.145109
-0.156827
-0.168534
-0.180198
-0.191914
0.191914
1.17944
1.17944
1.15273
1.11642
1.0788
1.04277
1.00958
0.979621
0.952741
0.928538
0.906524
0.886251
0.867363
0.849603
0.832805
0.816865
0.801711
0.78728
0.773499
0.760279
0.747517
0.735109
0.722955
0.710975
0.699106
0.687303
0.675537
0.663792
0.652058
0.640329
0.628603
0.616878
0.605155
0.593431
0.581708
0.569985
0.558262
0.546539
0.534816
0.523093
0.51137
0.499647
0.487924
0.476201
0.464479
0.452756
0.441033
0.42931
0.417587
0.405864
0.394141
0.382418
0.370695
0.358973
0.34725
0.335527
0.323804
0.312081
0.300358
0.288635
0.276912
0.26519
0.253467
0.241744
0.230021
0.218298
0.206575
0.194852
0.183129
0.171406
0.159684
0.147961
0.136238
0.124515
0.112792
0.101069
0.0893464
0.0776235
0.0659006
0.0541778
0.0424549
0.030732
0.0190092
0.00728631
-0.00443656
-0.0161594
-0.0278823
-0.0396052
-0.051328
-0.0630509
-0.0747737
-0.0864966
-0.0982195
-0.109942
-0.121665
-0.133388
-0.145109
-0.156828
-0.168542
-0.180228
-0.191927
0.191927
1.18901
1.18901
1.15522
1.11631
1.07784
1.04157
1.00841
0.978584
0.951888
0.927865
0.906005
0.885851
0.86705
0.849353
0.8326
0.816694
0.801568
0.787163
0.773407
0.760209
0.747467
0.735074
0.722933
0.710962
0.699098
0.687299
0.675535
0.663792
0.652058
0.640329
0.628603
0.616878
0.605155
0.593431
0.581708
0.569985
0.558262
0.546539
0.534816
0.523093
0.51137
0.499647
0.487924
0.476201
0.464479
0.452756
0.441033
0.42931
0.417587
0.405864
0.394141
0.382418
0.370695
0.358973
0.34725
0.335527
0.323804
0.312081
0.300358
0.288635
0.276912
0.26519
0.253467
0.241744
0.230021
0.218298
0.206575
0.194852
0.183129
0.171406
0.159684
0.147961
0.136238
0.124515
0.112792
0.101069
0.0893464
0.0776235
0.0659006
0.0541778
0.0424549
0.030732
0.0190092
0.00728631
-0.00443656
-0.0161594
-0.0278823
-0.0396052
-0.051328
-0.0630509
-0.0747737
-0.0864966
-0.0982195
-0.109942
-0.121665
-0.133388
-0.14511
-0.156831
-0.16855
-0.180262
-0.191941
0.191941
1.20399
1.20399
1.1581
1.11608
1.07673
1.04025
1.00715
0.977506
0.951027
0.927206
0.905511
0.885484
0.866775
0.849145
0.832441
0.816573
0.801478
0.787097
0.77336
0.760177
0.747447
0.735062
0.722927
0.710959
0.699097
0.687298
0.675535
0.663792
0.652058
0.640329
0.628603
0.616879
0.605155
0.593431
0.581708
0.569985
0.558262
0.546539
0.534816
0.523093
0.51137
0.499647
0.487924
0.476201
0.464479
0.452756
0.441033
0.42931
0.417587
0.405864
0.394141
0.382418
0.370695
0.358973
0.34725
0.335527
0.323804
0.312081
0.300358
0.288635
0.276912
0.26519
0.253467
0.241744
0.230021
0.218298
0.206575
0.194852
0.183129
0.171406
0.159684
0.147961
0.136238
0.124515
0.112792
0.101069
0.0893464
0.0776235
0.0659006
0.0541778
0.0424549
0.030732
0.0190092
0.00728631
-0.00443656
-0.0161594
-0.0278823
-0.0396052
-0.051328
-0.0630509
-0.0747737
-0.0864966
-0.0982195
-0.109942
-0.121665
-0.133388
-0.145111
-0.156832
-0.168555
-0.18028
-0.19195
0.19195
1.22493
1.22493
1.16009
1.11585
1.07603
1.03945
1.0064
0.976875
0.95052
0.926811
0.905208
0.885253
0.866599
0.849011
0.832343
0.816504
0.801433
0.787071
0.773347
0.760173
0.747447
0.735065
0.72293
0.710961
0.699099
0.687299
0.675536
0.663792
0.652058
0.640329
0.628603
0.616879
0.605155
0.593431
0.581708
0.569985
0.558262
0.546539
0.534816
0.523093
0.51137
0.499647
0.487924
0.476201
0.464479
0.452756
0.441033
0.42931
0.417587
0.405864
0.394141
0.382418
0.370695
0.358973
0.34725
0.335527
0.323804
0.312081
0.300358
0.288635
0.276912
0.26519
0.253467
0.241744
0.230021
0.218298
0.206575
0.194852
0.183129
0.171406
0.159684
0.147961
0.136238
0.124515
0.112792
0.101069
0.0893464
0.0776235
0.0659006
0.0541778
0.0424549
0.030732
0.0190092
0.00728631
-0.00443656
-0.0161594
-0.0278823
-0.0396052
-0.051328
-0.0630509
-0.0747737
-0.0864966
-0.0982195
-0.109942
-0.121665
-0.133388
-0.145111
-0.156833
-0.168556
-0.18028
-0.191952
0.191952
1.22493
1.22493
1.16009
1.11585
1.07603
1.03945
1.0064
0.976875
0.95052
0.926811
0.905208
0.885253
0.866599
0.849011
0.832343
0.816504
0.801433
0.787071
0.773347
0.760173
0.747447
0.735065
0.72293
0.710961
0.699099
0.687299
0.675536
0.663792
0.652058
0.640329
0.628603
0.616879
0.605155
0.593431
0.581708
0.569985
0.558262
0.546539
0.534816
0.523093
0.51137
0.499647
0.487924
0.476201
0.464479
0.452756
0.441033
0.42931
0.417587
0.405864
0.394141
0.382418
0.370695
0.358973
0.34725
0.335527
0.323804
0.312081
0.300358
0.288635
0.276912
0.26519
0.253467
0.241744
0.230021
0.218298
0.206575
0.194852
0.183129
0.171406
0.159684
0.147961
0.136238
0.124515
0.112792
0.101069
0.0893464
0.0776235
0.0659006
0.0541778
0.0424549
0.030732
0.0190092
0.00728631
-0.00443656
-0.0161594
-0.0278823
-0.0396052
-0.051328
-0.0630509
-0.0747737
-0.0864966
-0.0982195
-0.109942
-0.121665
-0.133388
-0.145111
-0.156833
-0.168556
-0.18028
-0.191952
0.191952
