# vtk DataFile Version 2.0
FlowField
ASCII
DATASET STRUCTURED_GRID
DIMENSIONS 102 13 1 
POINTS 1326 double
0 0 0
0.3 0 0
0.6 0 0
0.9 0 0
1.2 0 0
1.5 0 0
1.8 0 0
2.1 0 0
2.4 0 0
2.7 0 0
3 0 0
3.3 0 0
3.6 0 0
3.9 0 0
4.2 0 0
4.5 0 0
4.8 0 0
5.1 0 0
5.4 0 0
5.7 0 0
6 0 0
6.3 0 0
6.6 0 0
6.9 0 0
7.2 0 0
7.5 0 0
7.8 0 0
8.1 0 0
8.4 0 0
8.7 0 0
9 0 0
9.3 0 0
9.6 0 0
9.9 0 0
10.2 0 0
10.5 0 0
10.8 0 0
11.1 0 0
11.4 0 0
11.7 0 0
12 0 0
12.3 0 0
12.6 0 0
12.9 0 0
13.2 0 0
13.5 0 0
13.8 0 0
14.1 0 0
14.4 0 0
14.7 0 0
15 0 0
15.3 0 0
15.6 0 0
15.9 0 0
16.2 0 0
16.5 0 0
16.8 0 0
17.1 0 0
17.4 0 0
17.7 0 0
18 0 0
18.3 0 0
18.6 0 0
18.9 0 0
19.2 0 0
19.5 0 0
19.8 0 0
20.1 0 0
20.4 0 0
20.7 0 0
21 0 0
21.3 0 0
21.6 0 0
21.9 0 0
22.2 0 0
22.5 0 0
22.8 0 0
23.1 0 0
23.4 0 0
23.7 0 0
24 0 0
24.3 0 0
24.6 0 0
24.9 0 0
25.2 0 0
25.5 0 0
25.8 0 0
26.1 0 0
26.4 0 0
26.7 0 0
27 0 0
27.3 0 0
27.6 0 0
27.9 0 0
28.2 0 0
28.5 0 0
28.8 0 0
29.1 0 0
29.4 0 0
29.7 0 0
30 0 0
30.3 0 0
0 0.1 0
0.3 0.1 0
0.6 0.1 0
0.9 0.1 0
1.2 0.1 0
1.5 0.1 0
1.8 0.1 0
2.1 0.1 0
2.4 0.1 0
2.7 0.1 0
3 0.1 0
3.3 0.1 0
3.6 0.1 0
3.9 0.1 0
4.2 0.1 0
4.5 0.1 0
4.8 0.1 0
5.1 0.1 0
5.4 0.1 0
5.7 0.1 0
6 0.1 0
6.3 0.1 0
6.6 0.1 0
6.9 0.1 0
7.2 0.1 0
7.5 0.1 0
7.8 0.1 0
8.1 0.1 0
8.4 0.1 0
8.7 0.1 0
9 0.1 0
9.3 0.1 0
9.6 0.1 0
9.9 0.1 0
10.2 0.1 0
10.5 0.1 0
10.8 0.1 0
11.1 0.1 0
11.4 0.1 0
11.7 0.1 0
12 0.1 0
12.3 0.1 0
12.6 0.1 0
12.9 0.1 0
13.2 0.1 0
13.5 0.1 0
13.8 0.1 0
14.1 0.1 0
14.4 0.1 0
14.7 0.1 0
15 0.1 0
15.3 0.1 0
15.6 0.1 0
15.9 0.1 0
16.2 0.1 0
16.5 0.1 0
16.8 0.1 0
17.1 0.1 0
17.4 0.1 0
17.7 0.1 0
18 0.1 0
18.3 0.1 0
18.6 0.1 0
18.9 0.1 0
19.2 0.1 0
19.5 0.1 0
19.8 0.1 0
20.1 0.1 0
20.4 0.1 0
20.7 0.1 0
21 0.1 0
21.3 0.1 0
21.6 0.1 0
21.9 0.1 0
22.2 0.1 0
22.5 0.1 0
22.8 0.1 0
23.1 0.1 0
23.4 0.1 0
23.7 0.1 0
24 0.1 0
24.3 0.1 0
24.6 0.1 0
24.9 0.1 0
25.2 0.1 0
25.5 0.1 0
25.8 0.1 0
26.1 0.1 0
26.4 0.1 0
26.7 0.1 0
27 0.1 0
27.3 0.1 0
27.6 0.1 0
27.9 0.1 0
28.2 0.1 0
28.5 0.1 0
28.8 0.1 0
29.1 0.1 0
29.4 0.1 0
29.7 0.1 0
30 0.1 0
30.3 0.1 0
0 0.2 0
0.3 0.2 0
0.6 0.2 0
0.9 0.2 0
1.2 0.2 0
1.5 0.2 0
1.8 0.2 0
2.1 0.2 0
2.4 0.2 0
2.7 0.2 0
3 0.2 0
3.3 0.2 0
3.6 0.2 0
3.9 0.2 0
4.2 0.2 0
4.5 0.2 0
4.8 0.2 0
5.1 0.2 0
5.4 0.2 0
5.7 0.2 0
6 0.2 0
6.3 0.2 0
6.6 0.2 0
6.9 0.2 0
7.2 0.2 0
7.5 0.2 0
7.8 0.2 0
8.1 0.2 0
8.4 0.2 0
8.7 0.2 0
9 0.2 0
9.3 0.2 0
9.6 0.2 0
9.9 0.2 0
10.2 0.2 0
10.5 0.2 0
10.8 0.2 0
11.1 0.2 0
11.4 0.2 0
11.7 0.2 0
12 0.2 0
12.3 0.2 0
12.6 0.2 0
12.9 0.2 0
13.2 0.2 0
13.5 0.2 0
13.8 0.2 0
14.1 0.2 0
14.4 0.2 0
14.7 0.2 0
15 0.2 0
15.3 0.2 0
15.6 0.2 0
15.9 0.2 0
16.2 0.2 0
16.5 0.2 0
16.8 0.2 0
17.1 0.2 0
17.4 0.2 0
17.7 0.2 0
18 0.2 0
18.3 0.2 0
18.6 0.2 0
18.9 0.2 0
19.2 0.2 0
19.5 0.2 0
19.8 0.2 0
20.1 0.2 0
20.4 0.2 0
20.7 0.2 0
21 0.2 0
21.3 0.2 0
21.6 0.2 0
21.9 0.2 0
22.2 0.2 0
22.5 0.2 0
22.8 0.2 0
23.1 0.2 0
23.4 0.2 0
23.7 0.2 0
24 0.2 0
24.3 0.2 0
24.6 0.2 0
24.9 0.2 0
25.2 0.2 0
25.5 0.2 0
25.8 0.2 0
26.1 0.2 0
26.4 0.2 0
26.7 0.2 0
27 0.2 0
27.3 0.2 0
27.6 0.2 0
27.9 0.2 0
28.2 0.2 0
28.5 0.2 0
28.8 0.2 0
29.1 0.2 0
29.4 0.2 0
29.7 0.2 0
30 0.2 0
30.3 0.2 0
0 0.3 0
0.3 0.3 0
0.6 0.3 0
0.9 0.3 0
1.2 0.3 0
1.5 0.3 0
1.8 0.3 0
2.1 0.3 0
2.4 0.3 0
2.7 0.3 0
3 0.3 0
3.3 0.3 0
3.6 0.3 0
3.9 0.3 0
4.2 0.3 0
4.5 0.3 0
4.8 0.3 0
5.1 0.3 0
5.4 0.3 0
5.7 0.3 0
6 0.3 0
6.3 0.3 0
6.6 0.3 0
6.9 0.3 0
7.2 0.3 0
7.5 0.3 0
7.8 0.3 0
8.1 0.3 0
8.4 0.3 0
8.7 0.3 0
9 0.3 0
9.3 0.3 0
9.6 0.3 0
9.9 0.3 0
10.2 0.3 0
10.5 0.3 0
10.8 0.3 0
11.1 0.3 0
11.4 0.3 0
11.7 0.3 0
12 0.3 0
12.3 0.3 0
12.6 0.3 0
12.9 0.3 0
13.2 0.3 0
13.5 0.3 0
13.8 0.3 0
14.1 0.3 0
14.4 0.3 0
14.7 0.3 0
15 0.3 0
15.3 0.3 0
15.6 0.3 0
15.9 0.3 0
16.2 0.3 0
16.5 0.3 0
16.8 0.3 0
17.1 0.3 0
17.4 0.3 0
17.7 0.3 0
18 0.3 0
18.3 0.3 0
18.6 0.3 0
18.9 0.3 0
19.2 0.3 0
19.5 0.3 0
19.8 0.3 0
20.1 0.3 0
20.4 0.3 0
20.7 0.3 0
21 0.3 0
21.3 0.3 0
21.6 0.3 0
21.9 0.3 0
22.2 0.3 0
22.5 0.3 0
22.8 0.3 0
23.1 0.3 0
23.4 0.3 0
23.7 0.3 0
24 0.3 0
24.3 0.3 0
24.6 0.3 0
24.9 0.3 0
25.2 0.3 0
25.5 0.3 0
25.8 0.3 0
26.1 0.3 0
26.4 0.3 0
26.7 0.3 0
27 0.3 0
27.3 0.3 0
27.6 0.3 0
27.9 0.3 0
28.2 0.3 0
28.5 0.3 0
28.8 0.3 0
29.1 0.3 0
29.4 0.3 0
29.7 0.3 0
30 0.3 0
30.3 0.3 0
0 0.4 0
0.3 0.4 0
0.6 0.4 0
0.9 0.4 0
1.2 0.4 0
1.5 0.4 0
1.8 0.4 0
2.1 0.4 0
2.4 0.4 0
2.7 0.4 0
3 0.4 0
3.3 0.4 0
3.6 0.4 0
3.9 0.4 0
4.2 0.4 0
4.5 0.4 0
4.8 0.4 0
5.1 0.4 0
5.4 0.4 0
5.7 0.4 0
6 0.4 0
6.3 0.4 0
6.6 0.4 0
6.9 0.4 0
7.2 0.4 0
7.5 0.4 0
7.8 0.4 0
8.1 0.4 0
8.4 0.4 0
8.7 0.4 0
9 0.4 0
9.3 0.4 0
9.6 0.4 0
9.9 0.4 0
10.2 0.4 0
10.5 0.4 0
10.8 0.4 0
11.1 0.4 0
11.4 0.4 0
11.7 0.4 0
12 0.4 0
12.3 0.4 0
12.6 0.4 0
12.9 0.4 0
13.2 0.4 0
13.5 0.4 0
13.8 0.4 0
14.1 0.4 0
14.4 0.4 0
14.7 0.4 0
15 0.4 0
15.3 0.4 0
15.6 0.4 0
15.9 0.4 0
16.2 0.4 0
16.5 0.4 0
16.8 0.4 0
17.1 0.4 0
17.4 0.4 0
17.7 0.4 0
18 0.4 0
18.3 0.4 0
18.6 0.4 0
18.9 0.4 0
19.2 0.4 0
19.5 0.4 0
19.8 0.4 0
20.1 0.4 0
20.4 0.4 0
20.7 0.4 0
21 0.4 0
21.3 0.4 0
21.6 0.4 0
21.9 0.4 0
22.2 0.4 0
22.5 0.4 0
22.8 0.4 0
23.1 0.4 0
23.4 0.4 0
23.7 0.4 0
24 0.4 0
24.3 0.4 0
24.6 0.4 0
24.9 0.4 0
25.2 0.4 0
25.5 0.4 0
25.8 0.4 0
26.1 0.4 0
26.4 0.4 0
26.7 0.4 0
27 0.4 0
27.3 0.4 0
27.6 0.4 0
27.9 0.4 0
28.2 0.4 0
28.5 0.4 0
28.8 0.4 0
29.1 0.4 0
29.4 0.4 0
29.7 0.4 0
30 0.4 0
30.3 0.4 0
0 0.5 0
0.3 0.5 0
0.6 0.5 0
0.9 0.5 0
1.2 0.5 0
1.5 0.5 0
1.8 0.5 0
2.1 0.5 0
2.4 0.5 0
2.7 0.5 0
3 0.5 0
3.3 0.5 0
3.6 0.5 0
3.9 0.5 0
4.2 0.5 0
4.5 0.5 0
4.8 0.5 0
5.1 0.5 0
5.4 0.5 0
5.7 0.5 0
6 0.5 0
6.3 0.5 0
6.6 0.5 0
6.9 0.5 0
7.2 0.5 0
7.5 0.5 0
7.8 0.5 0
8.1 0.5 0
8.4 0.5 0
8.7 0.5 0
9 0.5 0
9.3 0.5 0
9.6 0.5 0
9.9 0.5 0
10.2 0.5 0
10.5 0.5 0
10.8 0.5 0
11.1 0.5 0
11.4 0.5 0
11.7 0.5 0
12 0.5 0
12.3 0.5 0
12.6 0.5 0
12.9 0.5 0
13.2 0.5 0
13.5 0.5 0
13.8 0.5 0
14.1 0.5 0
14.4 0.5 0
14.7 0.5 0
15 0.5 0
15.3 0.5 0
15.6 0.5 0
15.9 0.5 0
16.2 0.5 0
16.5 0.5 0
16.8 0.5 0
17.1 0.5 0
17.4 0.5 0
17.7 0.5 0
18 0.5 0
18.3 0.5 0
18.6 0.5 0
18.9 0.5 0
19.2 0.5 0
19.5 0.5 0
19.8 0.5 0
20.1 0.5 0
20.4 0.5 0
20.7 0.5 0
21 0.5 0
21.3 0.5 0
21.6 0.5 0
21.9 0.5 0
22.2 0.5 0
22.5 0.5 0
22.8 0.5 0
23.1 0.5 0
23.4 0.5 0
23.7 0.5 0
24 0.5 0
24.3 0.5 0
24.6 0.5 0
24.9 0.5 0
25.2 0.5 0
25.5 0.5 0
25.8 0.5 0
26.1 0.5 0
26.4 0.5 0
26.7 0.5 0
27 0.5 0
27.3 0.5 0
27.6 0.5 0
27.9 0.5 0
28.2 0.5 0
28.5 0.5 0
28.8 0.5 0
29.1 0.5 0
29.4 0.5 0
29.7 0.5 0
30 0.5 0
30.3 0.5 0
0 0.6 0
0.3 0.6 0
0.6 0.6 0
0.9 0.6 0
1.2 0.6 0
1.5 0.6 0
1.8 0.6 0
2.1 0.6 0
2.4 0.6 0
2.7 0.6 0
3 0.6 0
3.3 0.6 0
3.6 0.6 0
3.9 0.6 0
4.2 0.6 0
4.5 0.6 0
4.8 0.6 0
5.1 0.6 0
5.4 0.6 0
5.7 0.6 0
6 0.6 0
6.3 0.6 0
6.6 0.6 0
6.9 0.6 0
7.2 0.6 0
7.5 0.6 0
7.8 0.6 0
8.1 0.6 0
8.4 0.6 0
8.7 0.6 0
9 0.6 0
9.3 0.6 0
9.6 0.6 0
9.9 0.6 0
10.2 0.6 0
10.5 0.6 0
10.8 0.6 0
11.1 0.6 0
11.4 0.6 0
11.7 0.6 0
12 0.6 0
12.3 0.6 0
12.6 0.6 0
12.9 0.6 0
13.2 0.6 0
13.5 0.6 0
13.8 0.6 0
14.1 0.6 0
14.4 0.6 0
14.7 0.6 0
15 0.6 0
15.3 0.6 0
15.6 0.6 0
15.9 0.6 0
16.2 0.6 0
16.5 0.6 0
16.8 0.6 0
17.1 0.6 0
17.4 0.6 0
17.7 0.6 0
18 0.6 0
18.3 0.6 0
18.6 0.6 0
18.9 0.6 0
19.2 0.6 0
19.5 0.6 0
19.8 0.6 0
20.1 0.6 0
20.4 0.6 0
20.7 0.6 0
21 0.6 0
21.3 0.6 0
21.6 0.6 0
21.9 0.6 0
22.2 0.6 0
22.5 0.6 0
22.8 0.6 0
23.1 0.6 0
23.4 0.6 0
23.7 0.6 0
24 0.6 0
24.3 0.6 0
24.6 0.6 0
24.9 0.6 0
25.2 0.6 0
25.5 0.6 0
25.8 0.6 0
26.1 0.6 0
26.4 0.6 0
26.7 0.6 0
27 0.6 0
27.3 0.6 0
27.6 0.6 0
27.9 0.6 0
28.2 0.6 0
28.5 0.6 0
28.8 0.6 0
29.1 0.6 0
29.4 0.6 0
29.7 0.6 0
30 0.6 0
30.3 0.6 0
0 0.7 0
0.3 0.7 0
0.6 0.7 0
0.9 0.7 0
1.2 0.7 0
1.5 0.7 0
1.8 0.7 0
2.1 0.7 0
2.4 0.7 0
2.7 0.7 0
3 0.7 0
3.3 0.7 0
3.6 0.7 0
3.9 0.7 0
4.2 0.7 0
4.5 0.7 0
4.8 0.7 0
5.1 0.7 0
5.4 0.7 0
5.7 0.7 0
6 0.7 0
6.3 0.7 0
6.6 0.7 0
6.9 0.7 0
7.2 0.7 0
7.5 0.7 0
7.8 0.7 0
8.1 0.7 0
8.4 0.7 0
8.7 0.7 0
9 0.7 0
9.3 0.7 0
9.6 0.7 0
9.9 0.7 0
10.2 0.7 0
10.5 0.7 0
10.8 0.7 0
11.1 0.7 0
11.4 0.7 0
11.7 0.7 0
12 0.7 0
12.3 0.7 0
12.6 0.7 0
12.9 0.7 0
13.2 0.7 0
13.5 0.7 0
13.8 0.7 0
14.1 0.7 0
14.4 0.7 0
14.7 0.7 0
15 0.7 0
15.3 0.7 0
15.6 0.7 0
15.9 0.7 0
16.2 0.7 0
16.5 0.7 0
16.8 0.7 0
17.1 0.7 0
17.4 0.7 0
17.7 0.7 0
18 0.7 0
18.3 0.7 0
18.6 0.7 0
18.9 0.7 0
19.2 0.7 0
19.5 0.7 0
19.8 0.7 0
20.1 0.7 0
20.4 0.7 0
20.7 0.7 0
21 0.7 0
21.3 0.7 0
21.6 0.7 0
21.9 0.7 0
22.2 0.7 0
22.5 0.7 0
22.8 0.7 0
23.1 0.7 0
23.4 0.7 0
23.7 0.7 0
24 0.7 0
24.3 0.7 0
24.6 0.7 0
24.9 0.7 0
25.2 0.7 0
25.5 0.7 0
25.8 0.7 0
26.1 0.7 0
26.4 0.7 0
26.7 0.7 0
27 0.7 0
27.3 0.7 0
27.6 0.7 0
27.9 0.7 0
28.2 0.7 0
28.5 0.7 0
28.8 0.7 0
29.1 0.7 0
29.4 0.7 0
29.7 0.7 0
30 0.7 0
30.3 0.7 0
0 0.8 0
0.3 0.8 0
0.6 0.8 0
0.9 0.8 0
1.2 0.8 0
1.5 0.8 0
1.8 0.8 0
2.1 0.8 0
2.4 0.8 0
2.7 0.8 0
3 0.8 0
3.3 0.8 0
3.6 0.8 0
3.9 0.8 0
4.2 0.8 0
4.5 0.8 0
4.8 0.8 0
5.1 0.8 0
5.4 0.8 0
5.7 0.8 0
6 0.8 0
6.3 0.8 0
6.6 0.8 0
6.9 0.8 0
7.2 0.8 0
7.5 0.8 0
7.8 0.8 0
8.1 0.8 0
8.4 0.8 0
8.7 0.8 0
9 0.8 0
9.3 0.8 0
9.6 0.8 0
9.9 0.8 0
10.2 0.8 0
10.5 0.8 0
10.8 0.8 0
11.1 0.8 0
11.4 0.8 0
11.7 0.8 0
12 0.8 0
12.3 0.8 0
12.6 0.8 0
12.9 0.8 0
13.2 0.8 0
13.5 0.8 0
13.8 0.8 0
14.1 0.8 0
14.4 0.8 0
14.7 0.8 0
15 0.8 0
15.3 0.8 0
15.6 0.8 0
15.9 0.8 0
16.2 0.8 0
16.5 0.8 0
16.8 0.8 0
17.1 0.8 0
17.4 0.8 0
17.7 0.8 0
18 0.8 0
18.3 0.8 0
18.6 0.8 0
18.9 0.8 0
19.2 0.8 0
19.5 0.8 0
19.8 0.8 0
20.1 0.8 0
20.4 0.8 0
20.7 0.8 0
21 0.8 0
21.3 0.8 0
21.6 0.8 0
21.9 0.8 0
22.2 0.8 0
22.5 0.8 0
22.8 0.8 0
23.1 0.8 0
23.4 0.8 0
23.7 0.8 0
24 0.8 0
24.3 0.8 0
24.6 0.8 0
24.9 0.8 0
25.2 0.8 0
25.5 0.8 0
25.8 0.8 0
26.1 0.8 0
26.4 0.8 0
26.7 0.8 0
27 0.8 0
27.3 0.8 0
27.6 0.8 0
27.9 0.8 0
28.2 0.8 0
28.5 0.8 0
28.8 0.8 0
29.1 0.8 0
29.4 0.8 0
29.7 0.8 0
30 0.8 0
30.3 0.8 0
0 0.9 0
0.3 0.9 0
0.6 0.9 0
0.9 0.9 0
1.2 0.9 0
1.5 0.9 0
1.8 0.9 0
2.1 0.9 0
2.4 0.9 0
2.7 0.9 0
3 0.9 0
3.3 0.9 0
3.6 0.9 0
3.9 0.9 0
4.2 0.9 0
4.5 0.9 0
4.8 0.9 0
5.1 0.9 0
5.4 0.9 0
5.7 0.9 0
6 0.9 0
6.3 0.9 0
6.6 0.9 0
6.9 0.9 0
7.2 0.9 0
7.5 0.9 0
7.8 0.9 0
8.1 0.9 0
8.4 0.9 0
8.7 0.9 0
9 0.9 0
9.3 0.9 0
9.6 0.9 0
9.9 0.9 0
10.2 0.9 0
10.5 0.9 0
10.8 0.9 0
11.1 0.9 0
11.4 0.9 0
11.7 0.9 0
12 0.9 0
12.3 0.9 0
12.6 0.9 0
12.9 0.9 0
13.2 0.9 0
13.5 0.9 0
13.8 0.9 0
14.1 0.9 0
14.4 0.9 0
14.7 0.9 0
15 0.9 0
15.3 0.9 0
15.6 0.9 0
15.9 0.9 0
16.2 0.9 0
16.5 0.9 0
16.8 0.9 0
17.1 0.9 0
17.4 0.9 0
17.7 0.9 0
18 0.9 0
18.3 0.9 0
18.6 0.9 0
18.9 0.9 0
19.2 0.9 0
19.5 0.9 0
19.8 0.9 0
20.1 0.9 0
20.4 0.9 0
20.7 0.9 0
21 0.9 0
21.3 0.9 0
21.6 0.9 0
21.9 0.9 0
22.2 0.9 0
22.5 0.9 0
22.8 0.9 0
23.1 0.9 0
23.4 0.9 0
23.7 0.9 0
24 0.9 0
24.3 0.9 0
24.6 0.9 0
24.9 0.9 0
25.2 0.9 0
25.5 0.9 0
25.8 0.9 0
26.1 0.9 0
26.4 0.9 0
26.7 0.9 0
27 0.9 0
27.3 0.9 0
27.6 0.9 0
27.9 0.9 0
28.2 0.9 0
28.5 0.9 0
28.8 0.9 0
29.1 0.9 0
29.4 0.9 0
29.7 0.9 0
30 0.9 0
30.3 0.9 0
0 1 0
0.3 1 0
0.6 1 0
0.9 1 0
1.2 1 0
1.5 1 0
1.8 1 0
2.1 1 0
2.4 1 0
2.7 1 0
3 1 0
3.3 1 0
3.6 1 0
3.9 1 0
4.2 1 0
4.5 1 0
4.8 1 0
5.1 1 0
5.4 1 0
5.7 1 0
6 1 0
6.3 1 0
6.6 1 0
6.9 1 0
7.2 1 0
7.5 1 0
7.8 1 0
8.1 1 0
8.4 1 0
8.7 1 0
9 1 0
9.3 1 0
9.6 1 0
9.9 1 0
10.2 1 0
10.5 1 0
10.8 1 0
11.1 1 0
11.4 1 0
11.7 1 0
12 1 0
12.3 1 0
12.6 1 0
12.9 1 0
13.2 1 0
13.5 1 0
13.8 1 0
14.1 1 0
14.4 1 0
14.7 1 0
15 1 0
15.3 1 0
15.6 1 0
15.9 1 0
16.2 1 0
16.5 1 0
16.8 1 0
17.1 1 0
17.4 1 0
17.7 1 0
18 1 0
18.3 1 0
18.6 1 0
18.9 1 0
19.2 1 0
19.5 1 0
19.8 1 0
20.1 1 0
20.4 1 0
20.7 1 0
21 1 0
21.3 1 0
21.6 1 0
21.9 1 0
22.2 1 0
22.5 1 0
22.8 1 0
23.1 1 0
23.4 1 0
23.7 1 0
24 1 0
24.3 1 0
24.6 1 0
24.9 1 0
25.2 1 0
25.5 1 0
25.8 1 0
26.1 1 0
26.4 1 0
26.7 1 0
27 1 0
27.3 1 0
27.6 1 0
27.9 1 0
28.2 1 0
28.5 1 0
28.8 1 0
29.1 1 0
29.4 1 0
29.7 1 0
30 1 0
30.3 1 0
0 1.1 0
0.3 1.1 0
0.6 1.1 0
0.9 1.1 0
1.2 1.1 0
1.5 1.1 0
1.8 1.1 0
2.1 1.1 0
2.4 1.1 0
2.7 1.1 0
3 1.1 0
3.3 1.1 0
3.6 1.1 0
3.9 1.1 0
4.2 1.1 0
4.5 1.1 0
4.8 1.1 0
5.1 1.1 0
5.4 1.1 0
5.7 1.1 0
6 1.1 0
6.3 1.1 0
6.6 1.1 0
6.9 1.1 0
7.2 1.1 0
7.5 1.1 0
7.8 1.1 0
8.1 1.1 0
8.4 1.1 0
8.7 1.1 0
9 1.1 0
9.3 1.1 0
9.6 1.1 0
9.9 1.1 0
10.2 1.1 0
10.5 1.1 0
10.8 1.1 0
11.1 1.1 0
11.4 1.1 0
11.7 1.1 0
12 1.1 0
12.3 1.1 0
12.6 1.1 0
12.9 1.1 0
13.2 1.1 0
13.5 1.1 0
13.8 1.1 0
14.1 1.1 0
14.4 1.1 0
14.7 1.1 0
15 1.1 0
15.3 1.1 0
15.6 1.1 0
15.9 1.1 0
16.2 1.1 0
16.5 1.1 0
16.8 1.1 0
17.1 1.1 0
17.4 1.1 0
17.7 1.1 0
18 1.1 0
18.3 1.1 0
18.6 1.1 0
18.9 1.1 0
19.2 1.1 0
19.5 1.1 0
19.8 1.1 0
20.1 1.1 0
20.4 1.1 0
20.7 1.1 0
21 1.1 0
21.3 1.1 0
21.6 1.1 0
21.9 1.1 0
22.2 1.1 0
22.5 1.1 0
22.8 1.1 0
23.1 1.1 0
23.4 1.1 0
23.7 1.1 0
24 1.1 0
24.3 1.1 0
24.6 1.1 0
24.9 1.1 0
25.2 1.1 0
25.5 1.1 0
25.8 1.1 0
26.1 1.1 0
26.4 1.1 0
26.7 1.1 0
27 1.1 0
27.3 1.1 0
27.6 1.1 0
27.9 1.1 0
28.2 1.1 0
28.5 1.1 0
28.8 1.1 0
29.1 1.1 0
29.4 1.1 0
29.7 1.1 0
30 1.1 0
30.3 1.1 0
0 1.2 0
0.3 1.2 0
0.6 1.2 0
0.9 1.2 0
1.2 1.2 0
1.5 1.2 0
1.8 1.2 0
2.1 1.2 0
2.4 1.2 0
2.7 1.2 0
3 1.2 0
3.3 1.2 0
3.6 1.2 0
3.9 1.2 0
4.2 1.2 0
4.5 1.2 0
4.8 1.2 0
5.1 1.2 0
5.4 1.2 0
5.7 1.2 0
6 1.2 0
6.3 1.2 0
6.6 1.2 0
6.9 1.2 0
7.2 1.2 0
7.5 1.2 0
7.8 1.2 0
8.1 1.2 0
8.4 1.2 0
8.7 1.2 0
9 1.2 0
9.3 1.2 0
9.6 1.2 0
9.9 1.2 0
10.2 1.2 0
10.5 1.2 0
10.8 1.2 0
11.1 1.2 0
11.4 1.2 0
11.7 1.2 0
12 1.2 0
12.3 1.2 0
12.6 1.2 0
12.9 1.2 0
13.2 1.2 0
13.5 1.2 0
13.8 1.2 0
14.1 1.2 0
14.4 1.2 0
14.7 1.2 0
15 1.2 0
15.3 1.2 0
15.6 1.2 0
15.9 1.2 0
16.2 1.2 0
16.5 1.2 0
16.8 1.2 0
17.1 1.2 0
17.4 1.2 0
17.7 1.2 0
18 1.2 0
18.3 1.2 0
18.6 1.2 0
18.9 1.2 0
19.2 1.2 0
19.5 1.2 0
19.8 1.2 0
20.1 1.2 0
20.4 1.2 0
20.7 1.2 0
21 1.2 0
21.3 1.2 0
21.6 1.2 0
21.9 1.2 0
22.2 1.2 0
22.5 1.2 0
22.8 1.2 0
23.1 1.2 0
23.4 1.2 0
23.7 1.2 0
24 1.2 0
24.3 1.2 0
24.6 1.2 0
24.9 1.2 0
25.2 1.2 0
25.5 1.2 0
25.8 1.2 0
26.1 1.2 0
26.4 1.2 0
26.7 1.2 0
27 1.2 0
27.3 1.2 0
27.6 1.2 0
27.9 1.2 0
28.2 1.2 0
28.5 1.2 0
28.8 1.2 0
29.1 1.2 0
29.4 1.2 0
29.7 1.2 0
30 1.2 0
30.3 1.2 0

POINT_DATA 1326

SCALARS phi double
LOOKUP_TABLE default
1
1
1
1
0.999999
0.999994
0.999983
0.999958
0.99991
0.99983
0.999706
0.999526
0.999278
0.998951
0.998536
0.998024
0.997406
0.996678
0.995833
0.994869
0.993782
0.992574
0.991245
0.989795
0.988214
0.986477
0.984533
0.982304
0.979686
0.976552
0.972763
0.968183
0.962683
0.95615
0.948497
0.939661
0.929607
0.918326
0.905832
0.892161
0.877366
0.861518
0.844697
0.826991
0.808496
0.789309
0.769529
0.749252
0.728574
0.707585
0.68637
0.665012
0.643584
0.622155
0.60079
0.579544
0.55847
0.537613
0.517013
0.496707
0.476725
0.457093
0.437836
0.418971
0.400514
0.382479
0.364874
0.347707
0.330983
0.314706
0.298878
0.283498
0.268565
0.254078
0.240033
0.226428
0.213258
0.20052
0.18821
0.176323
0.164857
0.153806
0.14317
0.132944
0.123127
0.113718
0.104715
0.0961184
0.0879284
0.0801454
0.0727699
0.0658026
0.0592438
0.0530934
0.0473499
0.0420127
0.0370716
0.0325445
0.0283369
0.0247622
0.0205859
0.0205859
1
1
1
1
0.999999
0.999994
0.999983
0.999958
0.99991
0.99983
0.999706
0.999526
0.999278
0.998951
0.998536
0.998024
0.997406
0.996678
0.995833
0.994869
0.993782
0.992574
0.991245
0.989795
0.988214
0.986477
0.984533
0.982304
0.979686
0.976552
0.972763
0.968183
0.962683
0.95615
0.948497
0.939661
0.929607
0.918326
0.905832
0.892161
0.877366
0.861518
0.844697
0.826991
0.808496
0.789309
0.769529
0.749252
0.728574
0.707585
0.68637
0.665012
0.643584
0.622155
0.60079
0.579544
0.55847
0.537613
0.517013
0.496707
0.476725
0.457093
0.437836
0.418971
0.400514
0.382479
0.364874
0.347707
0.330983
0.314706
0.298878
0.283498
0.268565
0.254078
0.240033
0.226428
0.213258
0.20052
0.18821
0.176323
0.164857
0.153806
0.14317
0.132944
0.123127
0.113718
0.104715
0.0961184
0.0879284
0.0801454
0.0727699
0.0658026
0.0592438
0.0530934
0.0473499
0.0420127
0.0370716
0.0325445
0.0283369
0.0247622
0.0205859
0.0205859
1
1
1
0.999996
0.999983
0.999954
0.999898
0.999804
0.999658
0.999447
0.999157
0.998778
0.9983
0.997714
0.997014
0.996196
0.995256
0.994192
0.993003
0.991689
0.990252
0.988693
0.987017
0.985225
0.983322
0.981306
0.979169
0.976891
0.974437
0.971758
0.96879
0.965455
0.961668
0.957339
0.95238
0.946711
0.94026
0.932968
0.924792
0.915702
0.905686
0.894746
0.882899
0.870173
0.856608
0.842251
0.82716
0.811394
0.795018
0.778101
0.760708
0.742909
0.724769
0.706354
0.687725
0.668941
0.650058
0.631129
0.612201
0.59332
0.574526
0.555858
0.537348
0.519028
0.500925
0.483062
0.465461
0.448139
0.431113
0.414395
0.397996
0.381924
0.366184
0.350781
0.335718
0.320994
0.306609
0.292561
0.278845
0.265459
0.252395
0.23965
0.227215
0.215085
0.203253
0.191713
0.18046
0.169489
0.158797
0.148384
0.138249
0.128397
0.118833
0.109567
0.10061
0.0919815
0.083679
0.075789
0.0680925
0.0614495
0.0529196
0.0529196
0.999997
1
0.99998
0.999897
0.999724
0.999434
0.998999
0.998397
0.997613
0.996636
0.995464
0.994099
0.992547
0.990816
0.988916
0.986859
0.984655
0.982317
0.979854
0.977278
0.974598
0.971826
0.968969
0.966037
0.963037
0.959977
0.956862
0.953694
0.950471
0.947187
0.943828
0.940372
0.936791
0.93305
0.929109
0.924921
0.920439
0.915616
0.910402
0.904755
0.898634
0.892005
0.884838
0.877113
0.868815
0.859938
0.850481
0.84045
0.829859
0.818724
0.80707
0.794921
0.782309
0.769267
0.755828
0.742029
0.727907
0.713498
0.698841
0.68397
0.668922
0.653731
0.638432
0.623055
0.607631
0.592188
0.576754
0.561354
0.54601
0.530743
0.515574
0.500518
0.485592
0.470806
0.456173
0.4417
0.427394
0.413259
0.399296
0.385505
0.371884
0.358428
0.34513
0.331982
0.318974
0.306093
0.293327
0.28066
0.268079
0.255569
0.243116
0.23071
0.218342
0.206012
0.193719
0.181488
0.169294
0.157321
0.145086
0.134378
0.119477
0.119477
0.999999
1
0.99943
0.998224
0.996402
0.994008
0.991093
0.987716
0.983939
0.979828
0.975446
0.970853
0.966102
0.961239
0.9563
0.951318
0.946317
0.94132
0.936342
0.931396
0.926494
0.921643
0.91685
0.91212
0.907456
0.902862
0.898338
0.893885
0.889502
0.885188
0.880939
0.876749
0.872608
0.868506
0.864428
0.860357
0.856271
0.852148
0.847963
0.843688
0.839296
0.834759
0.830049
0.825138
0.820002
0.814616
0.80896
0.803015
0.796766
0.7902
0.783309
0.776086
0.768529
0.760637
0.752414
0.743864
0.734997
0.725821
0.716349
0.706593
0.696568
0.686291
0.675778
0.665045
0.654111
0.642994
0.631711
0.620281
0.608721
0.597049
0.58528
0.573432
0.561519
0.549556
0.537554
0.525527
0.513483
0.501432
0.489379
0.47733
0.465286
0.453248
0.441213
0.429176
0.417128
0.405058
0.39295
0.380787
0.368545
0.356198
0.343717
0.331072
0.318229
0.305159
0.291829
0.27824
0.264306
0.250279
0.235366
0.222198
0.202588
0.202588
1.00149
0.998508
0.989831
0.978334
0.965614
0.952521
0.939508
0.926817
0.914586
0.90289
0.891766
0.881226
0.871261
0.861853
0.852973
0.844592
0.836675
0.829189
0.822103
0.815387
0.809012
0.802953
0.797186
0.791689
0.786442
0.781427
0.776627
0.772028
0.767615
0.763376
0.7593
0.755373
0.751587
0.747929
0.744389
0.740956
0.737616
0.734359
0.73117
0.728035
0.724938
0.721865
0.718798
0.715721
0.712615
0.709463
0.706249
0.702953
0.699561
0.696055
0.69242
0.688643
0.684709
0.680608
0.676329
0.671862
0.667199
0.662335
0.657264
0.651984
0.646491
0.640784
0.634865
0.628734
0.622393
0.615846
0.609097
0.602151
0.595014
0.58769
0.580188
0.572514
0.564674
0.556677
0.548529
0.540237
0.531808
0.523247
0.51456
0.505751
0.496823
0.487776
0.478611
0.469323
0.459908
0.450356
0.440653
0.430782
0.420719
0.410435
0.399893
0.389051
0.37786
0.366271
0.35422
0.341685
0.328519
0.314997
0.300125
0.286919
0.266121
0.266121
1.04825
0.951752
0.875703
0.818253
0.774815
0.7415
0.715492
0.694815
0.678089
0.664344
0.652885
0.64321
0.634947
0.627818
0.62161
0.616159
0.611336
0.607038
0.603184
0.599708
0.596557
0.593685
0.591057
0.588642
0.586414
0.584353
0.582438
0.580656
0.578992
0.577435
0.575975
0.574602
0.573309
0.572089
0.570935
0.569842
0.568802
0.567812
0.566864
0.565953
0.565074
0.564219
0.563382
0.562556
0.561733
0.560905
0.560064
0.559202
0.558309
0.557375
0.556392
0.555349
0.554238
0.553047
0.551768
0.550392
0.548908
0.547309
0.545585
0.543729
0.541733
0.539589
0.537292
0.534835
0.532212
0.529419
0.526451
0.523305
0.519977
0.516465
0.512767
0.508882
0.504808
0.500544
0.496092
0.49145
0.48662
0.481601
0.476394
0.470998
0.465413
0.459636
0.453665
0.447496
0.44112
0.434528
0.427706
0.420635
0.41329
0.405641
0.397648
0.389264
0.380434
0.371099
0.361185
0.350654
0.339343
0.327512
0.314139
0.302199
0.282642
0.282642
-0.0446953
0.0446953
0.107508
0.152458
0.185771
0.211397
0.231802
0.248526
0.262546
0.274503
0.284836
0.293865
0.301831
0.308921
0.315285
0.32104
0.326285
0.331098
0.335543
0.339671
0.343527
0.347145
0.350555
0.353783
0.356848
0.359768
0.362558
0.365232
0.367799
0.37027
0.372654
0.374956
0.377185
0.379346
0.381443
0.383481
0.385464
0.387396
0.389279
0.391116
0.392909
0.394659
0.396366
0.398032
0.399657
0.401238
0.402777
0.404269
0.405714
0.407108
0.408447
0.409728
0.410945
0.412095
0.413171
0.414168
0.415078
0.415896
0.416615
0.417227
0.417725
0.418102
0.41835
0.418462
0.41843
0.418248
0.417909
0.417405
0.41673
0.415877
0.414842
0.413619
0.412202
0.410588
0.408771
0.406747
0.404514
0.402066
0.399399
0.396511
0.393395
0.390046
0.386457
0.38262
0.378523
0.374153
0.369492
0.364518
0.359202
0.353512
0.347405
0.340835
0.333748
0.326087
0.317783
0.308806
0.299012
0.288642
0.276792
0.266148
0.24858
0.24858
-0.00141662
0.00141662
0.00819779
0.0166628
0.0258774
0.0354226
0.0450903
0.0547523
0.0643113
0.0736887
0.0828235
0.0916733
0.100213
0.108431
0.116327
0.123909
0.131188
0.138179
0.144897
0.15136
0.157583
0.163582
0.169371
0.174965
0.180376
0.185617
0.190698
0.19563
0.200421
0.205082
0.20962
0.214041
0.218354
0.222564
0.226677
0.230699
0.234633
0.238484
0.242256
0.245952
0.249576
0.253129
0.256613
0.26003
0.26338
0.266664
0.269881
0.27303
0.27611
0.279118
0.282053
0.284909
0.287684
0.290373
0.292971
0.295472
0.29787
0.30016
0.302334
0.304386
0.306307
0.308092
0.309731
0.311218
0.312545
0.313704
0.314689
0.315492
0.316107
0.316526
0.316745
0.316756
0.316555
0.316136
0.315494
0.314624
0.313522
0.312182
0.310598
0.308766
0.306677
0.304325
0.301699
0.298789
0.295581
0.292059
0.288202
0.283988
0.279388
0.274373
0.268907
0.262954
0.256474
0.249432
0.24179
0.233542
0.224605
0.215196
0.204643
0.195146
0.180052
0.180052
-1.11746e-05
1.11746e-05
0.00042735
0.00124908
0.0024865
0.00414882
0.00623841
0.00874491
0.0116437
0.0148985
0.0184666
0.0223034
0.0263657
0.0306143
0.0350145
0.0395361
0.0441535
0.0488449
0.0535919
0.058379
0.0631933
0.0680237
0.0728611
0.0776978
0.0825273
0.0873442
0.0921439
0.0969225
0.101677
0.106404
0.111102
0.115769
0.120403
0.125001
0.129564
0.134089
0.138575
0.14302
0.147422
0.151779
0.156089
0.160349
0.164555
0.168704
0.172792
0.176813
0.180763
0.184635
0.188425
0.192124
0.195726
0.199223
0.202608
0.205873
0.20901
0.21201
0.214865
0.217566
0.220107
0.222477
0.22467
0.226677
0.228491
0.230106
0.231513
0.232708
0.233685
0.234437
0.234962
0.235253
0.235309
0.235124
0.234698
0.234026
0.233106
0.231936
0.230514
0.228836
0.226899
0.224701
0.222235
0.219497
0.216481
0.213178
0.209579
0.205673
0.20145
0.196895
0.191995
0.186738
0.181112
0.175107
0.168719
0.161949
0.154802
0.147308
0.139455
0.131414
0.1228
0.115105
0.10376
0.10376
1.77951e-06
-1.77951e-06
1.46452e-05
7.05609e-05
0.000191297
0.000407207
0.000751293
0.00125576
0.00194869
0.0028519
0.00398018
0.00534174
0.00693923
0.00877085
0.0108314
0.0131134
0.0156072
0.0183023
0.0211871
0.0242496
0.0274777
0.0308589
0.0343812
0.0380325
0.0418013
0.0456764
0.0496469
0.0537027
0.0578339
0.0620313
0.066286
0.0705895
0.0749336
0.0793103
0.0837116
0.0881295
0.0925559
0.0969823
0.1014
0.1058
0.110172
0.114506
0.118791
0.123017
0.127172
0.131243
0.13522
0.139088
0.142838
0.146454
0.149927
0.153243
0.156392
0.159362
0.162141
0.164721
0.167092
0.169245
0.171171
0.172863
0.174316
0.175523
0.176479
0.17718
0.177624
0.177807
0.177729
0.177389
0.176786
0.175921
0.174797
0.173414
0.171775
0.169884
0.167743
0.165357
0.162729
0.159863
0.156764
0.153437
0.149885
0.146113
0.142127
0.137931
0.133531
0.128934
0.124148
0.11918
0.114042
0.108747
0.10331
0.0977517
0.0920931
0.0863612
0.0805847
0.074802
0.069033
0.0633749
0.0576658
0.0526489
0.0459348
0.0459348
1.29312e-07
-1.29312e-07
2.38864e-07
4.46745e-06
2.01123e-05
6.11025e-05
0.000148704
0.000310434
0.000577097
0.000979211
0.00154414
0.00229449
0.0032476
0.00441569
0.00580634
0.00742301
0.00926564
0.0113312
0.0136141
0.0161068
0.0188002
0.0216839
0.0247468
0.0279771
0.0313628
0.0348918
0.0385521
0.0423319
0.0462196
0.0502038
0.0542732
0.0584167
0.062623
0.0668806
0.0711776
0.0755019
0.0798404
0.0841796
0.0885055
0.0928033
0.0970575
0.101252
0.105372
0.109399
0.113319
0.117113
0.120767
0.124264
0.127589
0.130728
0.133666
0.136392
0.138892
0.141156
0.143174
0.144938
0.146438
0.147671
0.148628
0.149308
0.149706
0.149821
0.149651
0.149198
0.148462
0.147446
0.146153
0.144587
0.142753
0.140658
0.138308
0.135711
0.132875
0.129811
0.126528
0.123037
0.11935
0.115481
0.111442
0.107249
0.102918
0.0984645
0.0939069
0.089264
0.0845556
0.0798025
0.0750268
0.0702512
0.0654992
0.0607949
0.0561626
0.0516267
0.047211
0.0429388
0.0388315
0.0349106
0.0311883
0.0277003
0.0243832
0.0215234
0.0180898
0.0180898
1.29312e-07
-1.29312e-07
2.38864e-07
4.46745e-06
2.01123e-05
6.11025e-05
0.000148704
0.000310434
0.000577097
0.000979211
0.00154414
0.00229449
0.0032476
0.00441569
0.00580634
0.00742301
0.00926564
0.0113312
0.0136141
0.0161068
0.0188002
0.0216839
0.0247468
0.0279771
0.0313628
0.0348918
0.0385521
0.0423319
0.0462196
0.0502038
0.0542732
0.0584167
0.062623
0.0668806
0.0711776
0.0755019
0.0798404
0.0841796
0.0885055
0.0928033
0.0970575
0.101252
0.105372
0.109399
0.113319
0.117113
0.120767
0.124264
0.127589
0.130728
0.133666
0.136392
0.138892
0.141156
0.143174
0.144938
0.146438
0.147671
0.148628
0.149308
0.149706
0.149821
0.149651
0.149198
0.148462
0.147446
0.146153
0.144587
0.142753
0.140658
0.138308
0.135711
0.132875
0.129811
0.126528
0.123037
0.11935
0.115481
0.111442
0.107249
0.102918
0.0984645
0.0939069
0.089264
0.0845556
0.0798025
0.0750268
0.0702512
0.0654992
0.0607949
0.0561626
0.0516267
0.047211
0.0429388
0.0388315
0.0349106
0.0311883
0.0277003
0.0243832
0.0215234
0.0180898
0.0180898
