# vtk DataFile Version 2.0
FlowField
ASCII
DATASET STRUCTURED_GRID
DIMENSIONS 102 1 12 
POINTS 1224 double
0 0 0
0.4 0 0
0.8 0 0
1.2 0 0
1.6 0 0
2 0 0
2.4 0 0
2.8 0 0
3.2 0 0
3.6 0 0
4 0 0
4.4 0 0
4.8 0 0
5.2 0 0
5.6 0 0
6 0 0
6.4 0 0
6.8 0 0
7.2 0 0
7.6 0 0
8 0 0
8.4 0 0
8.8 0 0
9.2 0 0
9.6 0 0
10 0 0
10.4 0 0
10.8 0 0
11.2 0 0
11.6 0 0
12 0 0
12.4 0 0
12.8 0 0
13.2 0 0
13.6 0 0
14 0 0
14.4 0 0
14.8 0 0
15.2 0 0
15.6 0 0
16 0 0
16.4 0 0
16.8 0 0
17.2 0 0
17.6 0 0
18 0 0
18.4 0 0
18.8 0 0
19.2 0 0
19.6 0 0
20 0 0
20.4 0 0
20.8 0 0
21.2 0 0
21.6 0 0
22 0 0
22.4 0 0
22.8 0 0
23.2 0 0
23.6 0 0
24 0 0
24.4 0 0
24.8 0 0
25.2 0 0
25.6 0 0
26 0 0
26.4 0 0
26.8 0 0
27.2 0 0
27.6 0 0
28 0 0
28.4 0 0
28.8 0 0
29.2 0 0
29.6 0 0
30 0 0
30.4 0 0
30.8 0 0
31.2 0 0
31.6 0 0
32 0 0
32.4 0 0
32.8 0 0
33.2 0 0
33.6 0 0
34 0 0
34.4 0 0
34.8 0 0
35.2 0 0
35.6 0 0
36 0 0
36.4 0 0
36.8 0 0
37.2 0 0
37.6 0 0
38 0 0
38.4 0 0
38.8 0 0
39.2 0 0
39.6 0 0
40 0 0
40.4 0 0
0 0.1 0
0.4 0.1 0
0.8 0.1 0
1.2 0.1 0
1.6 0.1 0
2 0.1 0
2.4 0.1 0
2.8 0.1 0
3.2 0.1 0
3.6 0.1 0
4 0.1 0
4.4 0.1 0
4.8 0.1 0
5.2 0.1 0
5.6 0.1 0
6 0.1 0
6.4 0.1 0
6.8 0.1 0
7.2 0.1 0
7.6 0.1 0
8 0.1 0
8.4 0.1 0
8.8 0.1 0
9.2 0.1 0
9.6 0.1 0
10 0.1 0
10.4 0.1 0
10.8 0.1 0
11.2 0.1 0
11.6 0.1 0
12 0.1 0
12.4 0.1 0
12.8 0.1 0
13.2 0.1 0
13.6 0.1 0
14 0.1 0
14.4 0.1 0
14.8 0.1 0
15.2 0.1 0
15.6 0.1 0
16 0.1 0
16.4 0.1 0
16.8 0.1 0
17.2 0.1 0
17.6 0.1 0
18 0.1 0
18.4 0.1 0
18.8 0.1 0
19.2 0.1 0
19.6 0.1 0
20 0.1 0
20.4 0.1 0
20.8 0.1 0
21.2 0.1 0
21.6 0.1 0
22 0.1 0
22.4 0.1 0
22.8 0.1 0
23.2 0.1 0
23.6 0.1 0
24 0.1 0
24.4 0.1 0
24.8 0.1 0
25.2 0.1 0
25.6 0.1 0
26 0.1 0
26.4 0.1 0
26.8 0.1 0
27.2 0.1 0
27.6 0.1 0
28 0.1 0
28.4 0.1 0
28.8 0.1 0
29.2 0.1 0
29.6 0.1 0
30 0.1 0
30.4 0.1 0
30.8 0.1 0
31.2 0.1 0
31.6 0.1 0
32 0.1 0
32.4 0.1 0
32.8 0.1 0
33.2 0.1 0
33.6 0.1 0
34 0.1 0
34.4 0.1 0
34.8 0.1 0
35.2 0.1 0
35.6 0.1 0
36 0.1 0
36.4 0.1 0
36.8 0.1 0
37.2 0.1 0
37.6 0.1 0
38 0.1 0
38.4 0.1 0
38.8 0.1 0
39.2 0.1 0
39.6 0.1 0
40 0.1 0
40.4 0.1 0
0 0.2 0
0.4 0.2 0
0.8 0.2 0
1.2 0.2 0
1.6 0.2 0
2 0.2 0
2.4 0.2 0
2.8 0.2 0
3.2 0.2 0
3.6 0.2 0
4 0.2 0
4.4 0.2 0
4.8 0.2 0
5.2 0.2 0
5.6 0.2 0
6 0.2 0
6.4 0.2 0
6.8 0.2 0
7.2 0.2 0
7.6 0.2 0
8 0.2 0
8.4 0.2 0
8.8 0.2 0
9.2 0.2 0
9.6 0.2 0
10 0.2 0
10.4 0.2 0
10.8 0.2 0
11.2 0.2 0
11.6 0.2 0
12 0.2 0
12.4 0.2 0
12.8 0.2 0
13.2 0.2 0
13.6 0.2 0
14 0.2 0
14.4 0.2 0
14.8 0.2 0
15.2 0.2 0
15.6 0.2 0
16 0.2 0
16.4 0.2 0
16.8 0.2 0
17.2 0.2 0
17.6 0.2 0
18 0.2 0
18.4 0.2 0
18.8 0.2 0
19.2 0.2 0
19.6 0.2 0
20 0.2 0
20.4 0.2 0
20.8 0.2 0
21.2 0.2 0
21.6 0.2 0
22 0.2 0
22.4 0.2 0
22.8 0.2 0
23.2 0.2 0
23.6 0.2 0
24 0.2 0
24.4 0.2 0
24.8 0.2 0
25.2 0.2 0
25.6 0.2 0
26 0.2 0
26.4 0.2 0
26.8 0.2 0
27.2 0.2 0
27.6 0.2 0
28 0.2 0
28.4 0.2 0
28.8 0.2 0
29.2 0.2 0
29.6 0.2 0
30 0.2 0
30.4 0.2 0
30.8 0.2 0
31.2 0.2 0
31.6 0.2 0
32 0.2 0
32.4 0.2 0
32.8 0.2 0
33.2 0.2 0
33.6 0.2 0
34 0.2 0
34.4 0.2 0
34.8 0.2 0
35.2 0.2 0
35.6 0.2 0
36 0.2 0
36.4 0.2 0
36.8 0.2 0
37.2 0.2 0
37.6 0.2 0
38 0.2 0
38.4 0.2 0
38.8 0.2 0
39.2 0.2 0
39.6 0.2 0
40 0.2 0
40.4 0.2 0
0 0.3 0
0.4 0.3 0
0.8 0.3 0
1.2 0.3 0
1.6 0.3 0
2 0.3 0
2.4 0.3 0
2.8 0.3 0
3.2 0.3 0
3.6 0.3 0
4 0.3 0
4.4 0.3 0
4.8 0.3 0
5.2 0.3 0
5.6 0.3 0
6 0.3 0
6.4 0.3 0
6.8 0.3 0
7.2 0.3 0
7.6 0.3 0
8 0.3 0
8.4 0.3 0
8.8 0.3 0
9.2 0.3 0
9.6 0.3 0
10 0.3 0
10.4 0.3 0
10.8 0.3 0
11.2 0.3 0
11.6 0.3 0
12 0.3 0
12.4 0.3 0
12.8 0.3 0
13.2 0.3 0
13.6 0.3 0
14 0.3 0
14.4 0.3 0
14.8 0.3 0
15.2 0.3 0
15.6 0.3 0
16 0.3 0
16.4 0.3 0
16.8 0.3 0
17.2 0.3 0
17.6 0.3 0
18 0.3 0
18.4 0.3 0
18.8 0.3 0
19.2 0.3 0
19.6 0.3 0
20 0.3 0
20.4 0.3 0
20.8 0.3 0
21.2 0.3 0
21.6 0.3 0
22 0.3 0
22.4 0.3 0
22.8 0.3 0
23.2 0.3 0
23.6 0.3 0
24 0.3 0
24.4 0.3 0
24.8 0.3 0
25.2 0.3 0
25.6 0.3 0
26 0.3 0
26.4 0.3 0
26.8 0.3 0
27.2 0.3 0
27.6 0.3 0
28 0.3 0
28.4 0.3 0
28.8 0.3 0
29.2 0.3 0
29.6 0.3 0
30 0.3 0
30.4 0.3 0
30.8 0.3 0
31.2 0.3 0
31.6 0.3 0
32 0.3 0
32.4 0.3 0
32.8 0.3 0
33.2 0.3 0
33.6 0.3 0
34 0.3 0
34.4 0.3 0
34.8 0.3 0
35.2 0.3 0
35.6 0.3 0
36 0.3 0
36.4 0.3 0
36.8 0.3 0
37.2 0.3 0
37.6 0.3 0
38 0.3 0
38.4 0.3 0
38.8 0.3 0
39.2 0.3 0
39.6 0.3 0
40 0.3 0
40.4 0.3 0
0 0.4 0
0.4 0.4 0
0.8 0.4 0
1.2 0.4 0
1.6 0.4 0
2 0.4 0
2.4 0.4 0
2.8 0.4 0
3.2 0.4 0
3.6 0.4 0
4 0.4 0
4.4 0.4 0
4.8 0.4 0
5.2 0.4 0
5.6 0.4 0
6 0.4 0
6.4 0.4 0
6.8 0.4 0
7.2 0.4 0
7.6 0.4 0
8 0.4 0
8.4 0.4 0
8.8 0.4 0
9.2 0.4 0
9.6 0.4 0
10 0.4 0
10.4 0.4 0
10.8 0.4 0
11.2 0.4 0
11.6 0.4 0
12 0.4 0
12.4 0.4 0
12.8 0.4 0
13.2 0.4 0
13.6 0.4 0
14 0.4 0
14.4 0.4 0
14.8 0.4 0
15.2 0.4 0
15.6 0.4 0
16 0.4 0
16.4 0.4 0
16.8 0.4 0
17.2 0.4 0
17.6 0.4 0
18 0.4 0
18.4 0.4 0
18.8 0.4 0
19.2 0.4 0
19.6 0.4 0
20 0.4 0
20.4 0.4 0
20.8 0.4 0
21.2 0.4 0
21.6 0.4 0
22 0.4 0
22.4 0.4 0
22.8 0.4 0
23.2 0.4 0
23.6 0.4 0
24 0.4 0
24.4 0.4 0
24.8 0.4 0
25.2 0.4 0
25.6 0.4 0
26 0.4 0
26.4 0.4 0
26.8 0.4 0
27.2 0.4 0
27.6 0.4 0
28 0.4 0
28.4 0.4 0
28.8 0.4 0
29.2 0.4 0
29.6 0.4 0
30 0.4 0
30.4 0.4 0
30.8 0.4 0
31.2 0.4 0
31.6 0.4 0
32 0.4 0
32.4 0.4 0
32.8 0.4 0
33.2 0.4 0
33.6 0.4 0
34 0.4 0
34.4 0.4 0
34.8 0.4 0
35.2 0.4 0
35.6 0.4 0
36 0.4 0
36.4 0.4 0
36.8 0.4 0
37.2 0.4 0
37.6 0.4 0
38 0.4 0
38.4 0.4 0
38.8 0.4 0
39.2 0.4 0
39.6 0.4 0
40 0.4 0
40.4 0.4 0
0 0.5 0
0.4 0.5 0
0.8 0.5 0
1.2 0.5 0
1.6 0.5 0
2 0.5 0
2.4 0.5 0
2.8 0.5 0
3.2 0.5 0
3.6 0.5 0
4 0.5 0
4.4 0.5 0
4.8 0.5 0
5.2 0.5 0
5.6 0.5 0
6 0.5 0
6.4 0.5 0
6.8 0.5 0
7.2 0.5 0
7.6 0.5 0
8 0.5 0
8.4 0.5 0
8.8 0.5 0
9.2 0.5 0
9.6 0.5 0
10 0.5 0
10.4 0.5 0
10.8 0.5 0
11.2 0.5 0
11.6 0.5 0
12 0.5 0
12.4 0.5 0
12.8 0.5 0
13.2 0.5 0
13.6 0.5 0
14 0.5 0
14.4 0.5 0
14.8 0.5 0
15.2 0.5 0
15.6 0.5 0
16 0.5 0
16.4 0.5 0
16.8 0.5 0
17.2 0.5 0
17.6 0.5 0
18 0.5 0
18.4 0.5 0
18.8 0.5 0
19.2 0.5 0
19.6 0.5 0
20 0.5 0
20.4 0.5 0
20.8 0.5 0
21.2 0.5 0
21.6 0.5 0
22 0.5 0
22.4 0.5 0
22.8 0.5 0
23.2 0.5 0
23.6 0.5 0
24 0.5 0
24.4 0.5 0
24.8 0.5 0
25.2 0.5 0
25.6 0.5 0
26 0.5 0
26.4 0.5 0
26.8 0.5 0
27.2 0.5 0
27.6 0.5 0
28 0.5 0
28.4 0.5 0
28.8 0.5 0
29.2 0.5 0
29.6 0.5 0
30 0.5 0
30.4 0.5 0
30.8 0.5 0
31.2 0.5 0
31.6 0.5 0
32 0.5 0
32.4 0.5 0
32.8 0.5 0
33.2 0.5 0
33.6 0.5 0
34 0.5 0
34.4 0.5 0
34.8 0.5 0
35.2 0.5 0
35.6 0.5 0
36 0.5 0
36.4 0.5 0
36.8 0.5 0
37.2 0.5 0
37.6 0.5 0
38 0.5 0
38.4 0.5 0
38.8 0.5 0
39.2 0.5 0
39.6 0.5 0
40 0.5 0
40.4 0.5 0
0 0.6 0
0.4 0.6 0
0.8 0.6 0
1.2 0.6 0
1.6 0.6 0
2 0.6 0
2.4 0.6 0
2.8 0.6 0
3.2 0.6 0
3.6 0.6 0
4 0.6 0
4.4 0.6 0
4.8 0.6 0
5.2 0.6 0
5.6 0.6 0
6 0.6 0
6.4 0.6 0
6.8 0.6 0
7.2 0.6 0
7.6 0.6 0
8 0.6 0
8.4 0.6 0
8.8 0.6 0
9.2 0.6 0
9.6 0.6 0
10 0.6 0
10.4 0.6 0
10.8 0.6 0
11.2 0.6 0
11.6 0.6 0
12 0.6 0
12.4 0.6 0
12.8 0.6 0
13.2 0.6 0
13.6 0.6 0
14 0.6 0
14.4 0.6 0
14.8 0.6 0
15.2 0.6 0
15.6 0.6 0
16 0.6 0
16.4 0.6 0
16.8 0.6 0
17.2 0.6 0
17.6 0.6 0
18 0.6 0
18.4 0.6 0
18.8 0.6 0
19.2 0.6 0
19.6 0.6 0
20 0.6 0
20.4 0.6 0
20.8 0.6 0
21.2 0.6 0
21.6 0.6 0
22 0.6 0
22.4 0.6 0
22.8 0.6 0
23.2 0.6 0
23.6 0.6 0
24 0.6 0
24.4 0.6 0
24.8 0.6 0
25.2 0.6 0
25.6 0.6 0
26 0.6 0
26.4 0.6 0
26.8 0.6 0
27.2 0.6 0
27.6 0.6 0
28 0.6 0
28.4 0.6 0
28.8 0.6 0
29.2 0.6 0
29.6 0.6 0
30 0.6 0
30.4 0.6 0
30.8 0.6 0
31.2 0.6 0
31.6 0.6 0
32 0.6 0
32.4 0.6 0
32.8 0.6 0
33.2 0.6 0
33.6 0.6 0
34 0.6 0
34.4 0.6 0
34.8 0.6 0
35.2 0.6 0
35.6 0.6 0
36 0.6 0
36.4 0.6 0
36.8 0.6 0
37.2 0.6 0
37.6 0.6 0
38 0.6 0
38.4 0.6 0
38.8 0.6 0
39.2 0.6 0
39.6 0.6 0
40 0.6 0
40.4 0.6 0
0 0.7 0
0.4 0.7 0
0.8 0.7 0
1.2 0.7 0
1.6 0.7 0
2 0.7 0
2.4 0.7 0
2.8 0.7 0
3.2 0.7 0
3.6 0.7 0
4 0.7 0
4.4 0.7 0
4.8 0.7 0
5.2 0.7 0
5.6 0.7 0
6 0.7 0
6.4 0.7 0
6.8 0.7 0
7.2 0.7 0
7.6 0.7 0
8 0.7 0
8.4 0.7 0
8.8 0.7 0
9.2 0.7 0
9.6 0.7 0
10 0.7 0
10.4 0.7 0
10.8 0.7 0
11.2 0.7 0
11.6 0.7 0
12 0.7 0
12.4 0.7 0
12.8 0.7 0
13.2 0.7 0
13.6 0.7 0
14 0.7 0
14.4 0.7 0
14.8 0.7 0
15.2 0.7 0
15.6 0.7 0
16 0.7 0
16.4 0.7 0
16.8 0.7 0
17.2 0.7 0
17.6 0.7 0
18 0.7 0
18.4 0.7 0
18.8 0.7 0
19.2 0.7 0
19.6 0.7 0
20 0.7 0
20.4 0.7 0
20.8 0.7 0
21.2 0.7 0
21.6 0.7 0
22 0.7 0
22.4 0.7 0
22.8 0.7 0
23.2 0.7 0
23.6 0.7 0
24 0.7 0
24.4 0.7 0
24.8 0.7 0
25.2 0.7 0
25.6 0.7 0
26 0.7 0
26.4 0.7 0
26.8 0.7 0
27.2 0.7 0
27.6 0.7 0
28 0.7 0
28.4 0.7 0
28.8 0.7 0
29.2 0.7 0
29.6 0.7 0
30 0.7 0
30.4 0.7 0
30.8 0.7 0
31.2 0.7 0
31.6 0.7 0
32 0.7 0
32.4 0.7 0
32.8 0.7 0
33.2 0.7 0
33.6 0.7 0
34 0.7 0
34.4 0.7 0
34.8 0.7 0
35.2 0.7 0
35.6 0.7 0
36 0.7 0
36.4 0.7 0
36.8 0.7 0
37.2 0.7 0
37.6 0.7 0
38 0.7 0
38.4 0.7 0
38.8 0.7 0
39.2 0.7 0
39.6 0.7 0
40 0.7 0
40.4 0.7 0
0 0.8 0
0.4 0.8 0
0.8 0.8 0
1.2 0.8 0
1.6 0.8 0
2 0.8 0
2.4 0.8 0
2.8 0.8 0
3.2 0.8 0
3.6 0.8 0
4 0.8 0
4.4 0.8 0
4.8 0.8 0
5.2 0.8 0
5.6 0.8 0
6 0.8 0
6.4 0.8 0
6.8 0.8 0
7.2 0.8 0
7.6 0.8 0
8 0.8 0
8.4 0.8 0
8.8 0.8 0
9.2 0.8 0
9.6 0.8 0
10 0.8 0
10.4 0.8 0
10.8 0.8 0
11.2 0.8 0
11.6 0.8 0
12 0.8 0
12.4 0.8 0
12.8 0.8 0
13.2 0.8 0
13.6 0.8 0
14 0.8 0
14.4 0.8 0
14.8 0.8 0
15.2 0.8 0
15.6 0.8 0
16 0.8 0
16.4 0.8 0
16.8 0.8 0
17.2 0.8 0
17.6 0.8 0
18 0.8 0
18.4 0.8 0
18.8 0.8 0
19.2 0.8 0
19.6 0.8 0
20 0.8 0
20.4 0.8 0
20.8 0.8 0
21.2 0.8 0
21.6 0.8 0
22 0.8 0
22.4 0.8 0
22.8 0.8 0
23.2 0.8 0
23.6 0.8 0
24 0.8 0
24.4 0.8 0
24.8 0.8 0
25.2 0.8 0
25.6 0.8 0
26 0.8 0
26.4 0.8 0
26.8 0.8 0
27.2 0.8 0
27.6 0.8 0
28 0.8 0
28.4 0.8 0
28.8 0.8 0
29.2 0.8 0
29.6 0.8 0
30 0.8 0
30.4 0.8 0
30.8 0.8 0
31.2 0.8 0
31.6 0.8 0
32 0.8 0
32.4 0.8 0
32.8 0.8 0
33.2 0.8 0
33.6 0.8 0
34 0.8 0
34.4 0.8 0
34.8 0.8 0
35.2 0.8 0
35.6 0.8 0
36 0.8 0
36.4 0.8 0
36.8 0.8 0
37.2 0.8 0
37.6 0.8 0
38 0.8 0
38.4 0.8 0
38.8 0.8 0
39.2 0.8 0
39.6 0.8 0
40 0.8 0
40.4 0.8 0
0 0.9 0
0.4 0.9 0
0.8 0.9 0
1.2 0.9 0
1.6 0.9 0
2 0.9 0
2.4 0.9 0
2.8 0.9 0
3.2 0.9 0
3.6 0.9 0
4 0.9 0
4.4 0.9 0
4.8 0.9 0
5.2 0.9 0
5.6 0.9 0
6 0.9 0
6.4 0.9 0
6.8 0.9 0
7.2 0.9 0
7.6 0.9 0
8 0.9 0
8.4 0.9 0
8.8 0.9 0
9.2 0.9 0
9.6 0.9 0
10 0.9 0
10.4 0.9 0
10.8 0.9 0
11.2 0.9 0
11.6 0.9 0
12 0.9 0
12.4 0.9 0
12.8 0.9 0
13.2 0.9 0
13.6 0.9 0
14 0.9 0
14.4 0.9 0
14.8 0.9 0
15.2 0.9 0
15.6 0.9 0
16 0.9 0
16.4 0.9 0
16.8 0.9 0
17.2 0.9 0
17.6 0.9 0
18 0.9 0
18.4 0.9 0
18.8 0.9 0
19.2 0.9 0
19.6 0.9 0
20 0.9 0
20.4 0.9 0
20.8 0.9 0
21.2 0.9 0
21.6 0.9 0
22 0.9 0
22.4 0.9 0
22.8 0.9 0
23.2 0.9 0
23.6 0.9 0
24 0.9 0
24.4 0.9 0
24.8 0.9 0
25.2 0.9 0
25.6 0.9 0
26 0.9 0
26.4 0.9 0
26.8 0.9 0
27.2 0.9 0
27.6 0.9 0
28 0.9 0
28.4 0.9 0
28.8 0.9 0
29.2 0.9 0
29.6 0.9 0
30 0.9 0
30.4 0.9 0
30.8 0.9 0
31.2 0.9 0
31.6 0.9 0
32 0.9 0
32.4 0.9 0
32.8 0.9 0
33.2 0.9 0
33.6 0.9 0
34 0.9 0
34.4 0.9 0
34.8 0.9 0
35.2 0.9 0
35.6 0.9 0
36 0.9 0
36.4 0.9 0
36.8 0.9 0
37.2 0.9 0
37.6 0.9 0
38 0.9 0
38.4 0.9 0
38.8 0.9 0
39.2 0.9 0
39.6 0.9 0
40 0.9 0
40.4 0.9 0
0 1 0
0.4 1 0
0.8 1 0
1.2 1 0
1.6 1 0
2 1 0
2.4 1 0
2.8 1 0
3.2 1 0
3.6 1 0
4 1 0
4.4 1 0
4.8 1 0
5.2 1 0
5.6 1 0
6 1 0
6.4 1 0
6.8 1 0
7.2 1 0
7.6 1 0
8 1 0
8.4 1 0
8.8 1 0
9.2 1 0
9.6 1 0
10 1 0
10.4 1 0
10.8 1 0
11.2 1 0
11.6 1 0
12 1 0
12.4 1 0
12.8 1 0
13.2 1 0
13.6 1 0
14 1 0
14.4 1 0
14.8 1 0
15.2 1 0
15.6 1 0
16 1 0
16.4 1 0
16.8 1 0
17.2 1 0
17.6 1 0
18 1 0
18.4 1 0
18.8 1 0
19.2 1 0
19.6 1 0
20 1 0
20.4 1 0
20.8 1 0
21.2 1 0
21.6 1 0
22 1 0
22.4 1 0
22.8 1 0
23.2 1 0
23.6 1 0
24 1 0
24.4 1 0
24.8 1 0
25.2 1 0
25.6 1 0
26 1 0
26.4 1 0
26.8 1 0
27.2 1 0
27.6 1 0
28 1 0
28.4 1 0
28.8 1 0
29.2 1 0
29.6 1 0
30 1 0
30.4 1 0
30.8 1 0
31.2 1 0
31.6 1 0
32 1 0
32.4 1 0
32.8 1 0
33.2 1 0
33.6 1 0
34 1 0
34.4 1 0
34.8 1 0
35.2 1 0
35.6 1 0
36 1 0
36.4 1 0
36.8 1 0
37.2 1 0
37.6 1 0
38 1 0
38.4 1 0
38.8 1 0
39.2 1 0
39.6 1 0
40 1 0
40.4 1 0
0 1.1 0
0.4 1.1 0
0.8 1.1 0
1.2 1.1 0
1.6 1.1 0
2 1.1 0
2.4 1.1 0
2.8 1.1 0
3.2 1.1 0
3.6 1.1 0
4 1.1 0
4.4 1.1 0
4.8 1.1 0
5.2 1.1 0
5.6 1.1 0
6 1.1 0
6.4 1.1 0
6.8 1.1 0
7.2 1.1 0
7.6 1.1 0
8 1.1 0
8.4 1.1 0
8.8 1.1 0
9.2 1.1 0
9.6 1.1 0
10 1.1 0
10.4 1.1 0
10.8 1.1 0
11.2 1.1 0
11.6 1.1 0
12 1.1 0
12.4 1.1 0
12.8 1.1 0
13.2 1.1 0
13.6 1.1 0
14 1.1 0
14.4 1.1 0
14.8 1.1 0
15.2 1.1 0
15.6 1.1 0
16 1.1 0
16.4 1.1 0
16.8 1.1 0
17.2 1.1 0
17.6 1.1 0
18 1.1 0
18.4 1.1 0
18.8 1.1 0
19.2 1.1 0
19.6 1.1 0
20 1.1 0
20.4 1.1 0
20.8 1.1 0
21.2 1.1 0
21.6 1.1 0
22 1.1 0
22.4 1.1 0
22.8 1.1 0
23.2 1.1 0
23.6 1.1 0
24 1.1 0
24.4 1.1 0
24.8 1.1 0
25.2 1.1 0
25.6 1.1 0
26 1.1 0
26.4 1.1 0
26.8 1.1 0
27.2 1.1 0
27.6 1.1 0
28 1.1 0
28.4 1.1 0
28.8 1.1 0
29.2 1.1 0
29.6 1.1 0
30 1.1 0
30.4 1.1 0
30.8 1.1 0
31.2 1.1 0
31.6 1.1 0
32 1.1 0
32.4 1.1 0
32.8 1.1 0
33.2 1.1 0
33.6 1.1 0
34 1.1 0
34.4 1.1 0
34.8 1.1 0
35.2 1.1 0
35.6 1.1 0
36 1.1 0
36.4 1.1 0
36.8 1.1 0
37.2 1.1 0
37.6 1.1 0
38 1.1 0
38.4 1.1 0
38.8 1.1 0
39.2 1.1 0
39.6 1.1 0
40 1.1 0
40.4 1.1 0

POINT_DATA 1224

SCALARS u double
LOOKUP_TABLE default
-1.15742
-0.842585
-0.620822
-0.489981
-0.418736
-0.380102
-0.357792
-0.343604
-0.333723
-0.326371
-0.320664
-0.316117
-0.312436
-0.309434
-0.306985
-0.305005
-0.303428
-0.302202
-0.301276
-0.3006
-0.300125
-0.299804
-0.299596
-0.299467
-0.299389
-0.299345
-0.299321
-0.299308
-0.299302
-0.299299
-0.299297
-0.299297
-0.299297
-0.299297
-0.299297
-0.299297
-0.299297
-0.299297
-0.299297
-0.299297
-0.299297
-0.299297
-0.299297
-0.299297
-0.299297
-0.299297
-0.299297
-0.299297
-0.299297
-0.299297
-0.299297
-0.299297
-0.299297
-0.299297
-0.299297
-0.299297
-0.299297
-0.299297
-0.299297
-0.299297
-0.299297
-0.299297
-0.299297
-0.299297
-0.299297
-0.299297
-0.299297
-0.299297
-0.299297
-0.299297
-0.299297
-0.299297
-0.299297
-0.299297
-0.299297
-0.299297
-0.299297
-0.299297
-0.299297
-0.299297
-0.299297
-0.299297
-0.299297
-0.299297
-0.299297
-0.299297
-0.299297
-0.299297
-0.299297
-0.299297
-0.299297
-0.299297
-0.299297
-0.299297
-0.299297
-0.299297
-0.299297
-0.299298
-0.299296
-0.299305
-0.299305
-1
1.15742
0.842585
0.620822
0.489981
0.418736
0.380102
0.357792
0.343604
0.333723
0.326371
0.320664
0.316117
0.312436
0.309434
0.306985
0.305005
0.303428
0.302202
0.301276
0.3006
0.300125
0.299804
0.299596
0.299467
0.299389
0.299345
0.299321
0.299308
0.299302
0.299299
0.299297
0.299297
0.299297
0.299297
0.299297
0.299297
0.299297
0.299297
0.299297
0.299297
0.299297
0.299297
0.299297
0.299297
0.299297
0.299297
0.299297
0.299297
0.299297
0.299297
0.299297
0.299297
0.299297
0.299297
0.299297
0.299297
0.299297
0.299297
0.299297
0.299297
0.299297
0.299297
0.299297
0.299297
0.299297
0.299297
0.299297
0.299297
0.299297
0.299297
0.299297
0.299297
0.299297
0.299297
0.299297
0.299297
0.299297
0.299297
0.299297
0.299297
0.299297
0.299297
0.299297
0.299297
0.299297
0.299297
0.299297
0.299297
0.299297
0.299297
0.299297
0.299297
0.299297
0.299297
0.299297
0.299297
0.299297
0.299298
0.299296
0.299305
0.299305
1
0.976268
1.02373
1.00214
0.963808
0.926544
0.895175
0.870077
0.850298
0.834698
0.822302
0.812357
0.804302
0.797733
0.79236
0.787976
0.784435
0.781621
0.779439
0.777795
0.776597
0.775757
0.77519
0.774823
0.774595
0.774459
0.774382
0.774339
0.774317
0.774306
0.7743
0.774298
0.774297
0.774297
0.774296
0.774296
0.774296
0.774296
0.774296
0.774297
0.774297
0.774297
0.774297
0.774297
0.774297
0.774297
0.774297
0.774297
0.774297
0.774297
0.774297
0.774297
0.774297
0.774297
0.774297
0.774297
0.774297
0.774297
0.774297
0.774297
0.774297
0.774297
0.774297
0.774297
0.774297
0.774297
0.774297
0.774297
0.774297
0.774297
0.774297
0.774297
0.774297
0.774297
0.774297
0.774297
0.774297
0.774297
0.774297
0.774297
0.774297
0.774297
0.774297
0.774297
0.774297
0.774297
0.774297
0.774297
0.774297
0.774297
0.774297
0.774297
0.774297
0.774297
0.774297
0.774297
0.774298
0.774297
0.774299
0.774296
0.774331
0.774331
1
0.95324
1.04676
1.10995
1.14211
1.15506
1.15802
1.15636
1.15284
1.14875
1.14469
1.14093
1.13757
1.13463
1.1321
1.12995
1.12815
1.12667
1.12549
1.12458
1.12388
1.12338
1.12303
1.12279
1.12264
1.12255
1.12249
1.12246
1.12244
1.12243
1.12243
1.12243
1.12243
1.12243
1.12242
1.12242
1.12242
1.12243
1.12243
1.12243
1.12243
1.12243
1.12243
1.12243
1.12243
1.12243
1.12243
1.12243
1.12243
1.12243
1.12243
1.12243
1.12243
1.12243
1.12243
1.12243
1.12243
1.12243
1.12243
1.12243
1.12243
1.12243
1.12243
1.12243
1.12243
1.12243
1.12243
1.12243
1.12243
1.12243
1.12243
1.12243
1.12243
1.12243
1.12243
1.12243
1.12243
1.12243
1.12243
1.12243
1.12243
1.12243
1.12243
1.12243
1.12243
1.12243
1.12243
1.12243
1.12243
1.12243
1.12243
1.12243
1.12243
1.12243
1.12243
1.12243
1.12243
1.12243
1.12243
1.12242
1.12245
1.12245
1
0.955191
1.04481
1.13263
1.19618
1.23828
1.26619
1.28547
1.29942
1.30989
1.31796
1.32429
1.32934
1.3334
1.33668
1.33933
1.34145
1.34311
1.3444
1.34535
1.34604
1.34651
1.34683
1.34703
1.34715
1.34722
1.34726
1.34728
1.34729
1.3473
1.3473
1.3473
1.3473
1.3473
1.3473
1.3473
1.3473
1.3473
1.3473
1.3473
1.3473
1.3473
1.3473
1.3473
1.3473
1.3473
1.3473
1.3473
1.3473
1.3473
1.3473
1.3473
1.3473
1.3473
1.3473
1.3473
1.3473
1.3473
1.3473
1.3473
1.3473
1.3473
1.3473
1.3473
1.3473
1.3473
1.3473
1.3473
1.3473
1.3473
1.3473
1.3473
1.3473
1.3473
1.3473
1.3473
1.3473
1.3473
1.3473
1.3473
1.3473
1.3473
1.3473
1.3473
1.3473
1.3473
1.3473
1.3473
1.3473
1.3473
1.3473
1.3473
1.3473
1.3473
1.3473
1.3473
1.3473
1.34731
1.3473
1.34731
1.34729
1.34729
1
0.957886
1.04211
1.13446
1.20791
1.26138
1.30051
1.33029
1.35384
1.37294
1.38868
1.40175
1.41267
1.4218
1.42943
1.43577
1.44097
1.44516
1.44847
1.451
1.45288
1.45422
1.45515
1.45576
1.45615
1.45638
1.45652
1.4566
1.45664
1.45666
1.45667
1.45668
1.45668
1.45668
1.45668
1.45668
1.45668
1.45668
1.45668
1.45668
1.45668
1.45668
1.45668
1.45668
1.45668
1.45668
1.45668
1.45668
1.45668
1.45668
1.45668
1.45668
1.45668
1.45668
1.45668
1.45668
1.45668
1.45668
1.45668
1.45668
1.45668
1.45668
1.45668
1.45668
1.45668
1.45668
1.45668
1.45668
1.45668
1.45668
1.45669
1.45669
1.45669
1.45669
1.45669
1.45669
1.45669
1.45669
1.45669
1.45669
1.45669
1.45669
1.45669
1.45669
1.45669
1.45669
1.45669
1.45669
1.45669
1.45669
1.45669
1.45669
1.45669
1.45669
1.45669
1.45669
1.45669
1.45669
1.45668
1.45669
1.45664
1.45664
1
0.957886
1.04211
1.13446
1.20791
1.26138
1.30051
1.33029
1.35384
1.37294
1.38868
1.40175
1.41267
1.4218
1.42943
1.43577
1.44097
1.44517
1.44847
1.451
1.45288
1.45422
1.45515
1.45576
1.45615
1.45638
1.45652
1.4566
1.45664
1.45666
1.45667
1.45668
1.45668
1.45668
1.45668
1.45668
1.45668
1.45668
1.45668
1.45668
1.45668
1.45668
1.45668
1.45668
1.45668
1.45668
1.45668
1.45668
1.45668
1.45668
1.45668
1.45668
1.45668
1.45668
1.45668
1.45668
1.45668
1.45668
1.45668
1.45668
1.45668
1.45668
1.45668
1.45668
1.45668
1.45668
1.45668
1.45668
1.45668
1.45668
1.45668
1.45668
1.45668
1.45668
1.45668
1.45668
1.45669
1.45669
1.45669
1.45669
1.45669
1.45669
1.45669
1.45669
1.45669
1.45669
1.45669
1.45669
1.45669
1.45669
1.45669
1.45669
1.45669
1.45669
1.45669
1.45669
1.45668
1.45669
1.45668
1.45669
1.45664
1.45664
1
0.955191
1.04481
1.13263
1.19618
1.23828
1.26619
1.28547
1.29942
1.30989
1.31796
1.32429
1.32934
1.3334
1.33668
1.33933
1.34145
1.34311
1.3444
1.34535
1.34604
1.34651
1.34683
1.34703
1.34715
1.34722
1.34726
1.34728
1.34729
1.3473
1.3473
1.3473
1.3473
1.3473
1.3473
1.3473
1.3473
1.3473
1.3473
1.3473
1.3473
1.3473
1.3473
1.3473
1.3473
1.3473
1.3473
1.3473
1.3473
1.3473
1.3473
1.3473
1.3473
1.3473
1.3473
1.3473
1.3473
1.3473
1.3473
1.3473
1.3473
1.3473
1.3473
1.3473
1.3473
1.3473
1.3473
1.3473
1.3473
1.3473
1.3473
1.3473
1.3473
1.3473
1.3473
1.3473
1.3473
1.3473
1.3473
1.3473
1.3473
1.3473
1.3473
1.3473
1.3473
1.3473
1.3473
1.3473
1.3473
1.3473
1.3473
1.3473
1.3473
1.3473
1.3473
1.3473
1.3473
1.3473
1.3473
1.34731
1.34729
1.34729
1
0.95324
1.04676
1.10995
1.14211
1.15506
1.15802
1.15637
1.15284
1.14875
1.14469
1.14093
1.13757
1.13463
1.1321
1.12995
1.12815
1.12667
1.12549
1.12458
1.12389
1.12338
1.12303
1.12279
1.12264
1.12255
1.12249
1.12246
1.12244
1.12243
1.12243
1.12243
1.12243
1.12243
1.12243
1.12243
1.12243
1.12243
1.12243
1.12243
1.12243
1.12243
1.12243
1.12243
1.12243
1.12243
1.12243
1.12243
1.12243
1.12243
1.12243
1.12243
1.12243
1.12243
1.12243
1.12243
1.12243
1.12243
1.12243
1.12243
1.12243
1.12243
1.12243
1.12243
1.12243
1.12243
1.12243
1.12243
1.12243
1.12243
1.12243
1.12243
1.12243
1.12243
1.12243
1.12243
1.12243
1.12243
1.12243
1.12243
1.12243
1.12243
1.12243
1.12243
1.12243
1.12243
1.12243
1.12243
1.12243
1.12243
1.12243
1.12243
1.12243
1.12243
1.12243
1.12243
1.12243
1.12243
1.12243
1.12242
1.12245
1.12245
1
0.976268
1.02373
1.00214
0.963809
0.926544
0.895175
0.870078
0.850298
0.834699
0.822303
0.812357
0.804303
0.797734
0.792361
0.787977
0.784435
0.781622
0.77944
0.777795
0.776598
0.775758
0.775191
0.774824
0.774596
0.77446
0.774382
0.77434
0.774317
0.774306
0.774301
0.774298
0.774297
0.774297
0.774297
0.774297
0.774297
0.774297
0.774297
0.774297
0.774297
0.774297
0.774297
0.774297
0.774297
0.774297
0.774297
0.774297
0.774297
0.774297
0.774297
0.774297
0.774297
0.774297
0.774297
0.774297
0.774297
0.774297
0.774297
0.774297
0.774297
0.774297
0.774297
0.774297
0.774297
0.774297
0.774297
0.774297
0.774297
0.774297
0.774297
0.774297
0.774297
0.774297
0.774297
0.774297
0.774297
0.774297
0.774297
0.774297
0.774297
0.774297
0.774297
0.774297
0.774297
0.774297
0.774297
0.774297
0.774297
0.774297
0.774297
0.774297
0.774297
0.774297
0.774297
0.774297
0.774297
0.774297
0.774299
0.774295
0.77433
0.77433
1
1.15742
0.842585
0.620822
0.489981
0.418736
0.380103
0.357792
0.343604
0.333723
0.326372
0.320665
0.316117
0.312436
0.309434
0.306986
0.305005
0.303428
0.302202
0.301276
0.3006
0.300125
0.299804
0.299596
0.299467
0.29939
0.299345
0.299321
0.299309
0.299302
0.299299
0.299298
0.299297
0.299297
0.299297
0.299297
0.299297
0.299297
0.299297
0.299297
0.299297
0.299297
0.299297
0.299297
0.299297
0.299297
0.299297
0.299297
0.299297
0.299297
0.299297
0.299297
0.299297
0.299297
0.299297
0.299297
0.299297
0.299297
0.299297
0.299297
0.299297
0.299297
0.299297
0.299297
0.299297
0.299297
0.299297
0.299297
0.299297
0.299297
0.299297
0.299297
0.299297
0.299297
0.299297
0.299297
0.299297
0.299297
0.299297
0.299297
0.299297
0.299297
0.299297
0.299297
0.299297
0.299297
0.299297
0.299297
0.299297
0.299297
0.299297
0.299297
0.299297
0.299297
0.299297
0.299297
0.299297
0.299296
0.299298
0.299296
0.299305
0.299305
1
-1.15742
-0.842585
-0.620822
-0.489981
-0.418736
-0.380103
-0.357792
-0.343604
-0.333723
-0.326372
-0.320665
-0.316117
-0.312436
-0.309434
-0.306986
-0.305005
-0.303428
-0.302202
-0.301276
-0.3006
-0.300125
-0.299804
-0.299596
-0.299467
-0.29939
-0.299345
-0.299321
-0.299309
-0.299302
-0.299299
-0.299298
-0.299297
-0.299297
-0.299297
-0.299297
-0.299297
-0.299297
-0.299297
-0.299297
-0.299297
-0.299297
-0.299297
-0.299297
-0.299297
-0.299297
-0.299297
-0.299297
-0.299297
-0.299297
-0.299297
-0.299297
-0.299297
-0.299297
-0.299297
-0.299297
-0.299297
-0.299297
-0.299297
-0.299297
-0.299297
-0.299297
-0.299297
-0.299297
-0.299297
-0.299297
-0.299297
-0.299297
-0.299297
-0.299297
-0.299297
-0.299297
-0.299297
-0.299297
-0.299297
-0.299297
-0.299297
-0.299297
-0.299297
-0.299297
-0.299297
-0.299297
-0.299297
-0.299297
-0.299297
-0.299297
-0.299297
-0.299297
-0.299297
-0.299297
-0.299297
-0.299297
-0.299297
-0.299297
-0.299297
-0.299297
-0.299297
-0.299296
-0.299298
-0.299296
-0.299305
-0.299305
-1
