# vtk DataFile Version 2.0
FlowField
ASCII
DATASET STRUCTURED_GRID
DIMENSIONS 102 1 12 
POINTS 1224 double
0 0 0
0.4 0 0
0.8 0 0
1.2 0 0
1.6 0 0
2 0 0
2.4 0 0
2.8 0 0
3.2 0 0
3.6 0 0
4 0 0
4.4 0 0
4.8 0 0
5.2 0 0
5.6 0 0
6 0 0
6.4 0 0
6.8 0 0
7.2 0 0
7.6 0 0
8 0 0
8.4 0 0
8.8 0 0
9.2 0 0
9.6 0 0
10 0 0
10.4 0 0
10.8 0 0
11.2 0 0
11.6 0 0
12 0 0
12.4 0 0
12.8 0 0
13.2 0 0
13.6 0 0
14 0 0
14.4 0 0
14.8 0 0
15.2 0 0
15.6 0 0
16 0 0
16.4 0 0
16.8 0 0
17.2 0 0
17.6 0 0
18 0 0
18.4 0 0
18.8 0 0
19.2 0 0
19.6 0 0
20 0 0
20.4 0 0
20.8 0 0
21.2 0 0
21.6 0 0
22 0 0
22.4 0 0
22.8 0 0
23.2 0 0
23.6 0 0
24 0 0
24.4 0 0
24.8 0 0
25.2 0 0
25.6 0 0
26 0 0
26.4 0 0
26.8 0 0
27.2 0 0
27.6 0 0
28 0 0
28.4 0 0
28.8 0 0
29.2 0 0
29.6 0 0
30 0 0
30.4 0 0
30.8 0 0
31.2 0 0
31.6 0 0
32 0 0
32.4 0 0
32.8 0 0
33.2 0 0
33.6 0 0
34 0 0
34.4 0 0
34.8 0 0
35.2 0 0
35.6 0 0
36 0 0
36.4 0 0
36.8 0 0
37.2 0 0
37.6 0 0
38 0 0
38.4 0 0
38.8 0 0
39.2 0 0
39.6 0 0
40 0 0
40.4 0 0
0 0.1 0
0.4 0.1 0
0.8 0.1 0
1.2 0.1 0
1.6 0.1 0
2 0.1 0
2.4 0.1 0
2.8 0.1 0
3.2 0.1 0
3.6 0.1 0
4 0.1 0
4.4 0.1 0
4.8 0.1 0
5.2 0.1 0
5.6 0.1 0
6 0.1 0
6.4 0.1 0
6.8 0.1 0
7.2 0.1 0
7.6 0.1 0
8 0.1 0
8.4 0.1 0
8.8 0.1 0
9.2 0.1 0
9.6 0.1 0
10 0.1 0
10.4 0.1 0
10.8 0.1 0
11.2 0.1 0
11.6 0.1 0
12 0.1 0
12.4 0.1 0
12.8 0.1 0
13.2 0.1 0
13.6 0.1 0
14 0.1 0
14.4 0.1 0
14.8 0.1 0
15.2 0.1 0
15.6 0.1 0
16 0.1 0
16.4 0.1 0
16.8 0.1 0
17.2 0.1 0
17.6 0.1 0
18 0.1 0
18.4 0.1 0
18.8 0.1 0
19.2 0.1 0
19.6 0.1 0
20 0.1 0
20.4 0.1 0
20.8 0.1 0
21.2 0.1 0
21.6 0.1 0
22 0.1 0
22.4 0.1 0
22.8 0.1 0
23.2 0.1 0
23.6 0.1 0
24 0.1 0
24.4 0.1 0
24.8 0.1 0
25.2 0.1 0
25.6 0.1 0
26 0.1 0
26.4 0.1 0
26.8 0.1 0
27.2 0.1 0
27.6 0.1 0
28 0.1 0
28.4 0.1 0
28.8 0.1 0
29.2 0.1 0
29.6 0.1 0
30 0.1 0
30.4 0.1 0
30.8 0.1 0
31.2 0.1 0
31.6 0.1 0
32 0.1 0
32.4 0.1 0
32.8 0.1 0
33.2 0.1 0
33.6 0.1 0
34 0.1 0
34.4 0.1 0
34.8 0.1 0
35.2 0.1 0
35.6 0.1 0
36 0.1 0
36.4 0.1 0
36.8 0.1 0
37.2 0.1 0
37.6 0.1 0
38 0.1 0
38.4 0.1 0
38.8 0.1 0
39.2 0.1 0
39.6 0.1 0
40 0.1 0
40.4 0.1 0
0 0.2 0
0.4 0.2 0
0.8 0.2 0
1.2 0.2 0
1.6 0.2 0
2 0.2 0
2.4 0.2 0
2.8 0.2 0
3.2 0.2 0
3.6 0.2 0
4 0.2 0
4.4 0.2 0
4.8 0.2 0
5.2 0.2 0
5.6 0.2 0
6 0.2 0
6.4 0.2 0
6.8 0.2 0
7.2 0.2 0
7.6 0.2 0
8 0.2 0
8.4 0.2 0
8.8 0.2 0
9.2 0.2 0
9.6 0.2 0
10 0.2 0
10.4 0.2 0
10.8 0.2 0
11.2 0.2 0
11.6 0.2 0
12 0.2 0
12.4 0.2 0
12.8 0.2 0
13.2 0.2 0
13.6 0.2 0
14 0.2 0
14.4 0.2 0
14.8 0.2 0
15.2 0.2 0
15.6 0.2 0
16 0.2 0
16.4 0.2 0
16.8 0.2 0
17.2 0.2 0
17.6 0.2 0
18 0.2 0
18.4 0.2 0
18.8 0.2 0
19.2 0.2 0
19.6 0.2 0
20 0.2 0
20.4 0.2 0
20.8 0.2 0
21.2 0.2 0
21.6 0.2 0
22 0.2 0
22.4 0.2 0
22.8 0.2 0
23.2 0.2 0
23.6 0.2 0
24 0.2 0
24.4 0.2 0
24.8 0.2 0
25.2 0.2 0
25.6 0.2 0
26 0.2 0
26.4 0.2 0
26.8 0.2 0
27.2 0.2 0
27.6 0.2 0
28 0.2 0
28.4 0.2 0
28.8 0.2 0
29.2 0.2 0
29.6 0.2 0
30 0.2 0
30.4 0.2 0
30.8 0.2 0
31.2 0.2 0
31.6 0.2 0
32 0.2 0
32.4 0.2 0
32.8 0.2 0
33.2 0.2 0
33.6 0.2 0
34 0.2 0
34.4 0.2 0
34.8 0.2 0
35.2 0.2 0
35.6 0.2 0
36 0.2 0
36.4 0.2 0
36.8 0.2 0
37.2 0.2 0
37.6 0.2 0
38 0.2 0
38.4 0.2 0
38.8 0.2 0
39.2 0.2 0
39.6 0.2 0
40 0.2 0
40.4 0.2 0
0 0.3 0
0.4 0.3 0
0.8 0.3 0
1.2 0.3 0
1.6 0.3 0
2 0.3 0
2.4 0.3 0
2.8 0.3 0
3.2 0.3 0
3.6 0.3 0
4 0.3 0
4.4 0.3 0
4.8 0.3 0
5.2 0.3 0
5.6 0.3 0
6 0.3 0
6.4 0.3 0
6.8 0.3 0
7.2 0.3 0
7.6 0.3 0
8 0.3 0
8.4 0.3 0
8.8 0.3 0
9.2 0.3 0
9.6 0.3 0
10 0.3 0
10.4 0.3 0
10.8 0.3 0
11.2 0.3 0
11.6 0.3 0
12 0.3 0
12.4 0.3 0
12.8 0.3 0
13.2 0.3 0
13.6 0.3 0
14 0.3 0
14.4 0.3 0
14.8 0.3 0
15.2 0.3 0
15.6 0.3 0
16 0.3 0
16.4 0.3 0
16.8 0.3 0
17.2 0.3 0
17.6 0.3 0
18 0.3 0
18.4 0.3 0
18.8 0.3 0
19.2 0.3 0
19.6 0.3 0
20 0.3 0
20.4 0.3 0
20.8 0.3 0
21.2 0.3 0
21.6 0.3 0
22 0.3 0
22.4 0.3 0
22.8 0.3 0
23.2 0.3 0
23.6 0.3 0
24 0.3 0
24.4 0.3 0
24.8 0.3 0
25.2 0.3 0
25.6 0.3 0
26 0.3 0
26.4 0.3 0
26.8 0.3 0
27.2 0.3 0
27.6 0.3 0
28 0.3 0
28.4 0.3 0
28.8 0.3 0
29.2 0.3 0
29.6 0.3 0
30 0.3 0
30.4 0.3 0
30.8 0.3 0
31.2 0.3 0
31.6 0.3 0
32 0.3 0
32.4 0.3 0
32.8 0.3 0
33.2 0.3 0
33.6 0.3 0
34 0.3 0
34.4 0.3 0
34.8 0.3 0
35.2 0.3 0
35.6 0.3 0
36 0.3 0
36.4 0.3 0
36.8 0.3 0
37.2 0.3 0
37.6 0.3 0
38 0.3 0
38.4 0.3 0
38.8 0.3 0
39.2 0.3 0
39.6 0.3 0
40 0.3 0
40.4 0.3 0
0 0.4 0
0.4 0.4 0
0.8 0.4 0
1.2 0.4 0
1.6 0.4 0
2 0.4 0
2.4 0.4 0
2.8 0.4 0
3.2 0.4 0
3.6 0.4 0
4 0.4 0
4.4 0.4 0
4.8 0.4 0
5.2 0.4 0
5.6 0.4 0
6 0.4 0
6.4 0.4 0
6.8 0.4 0
7.2 0.4 0
7.6 0.4 0
8 0.4 0
8.4 0.4 0
8.8 0.4 0
9.2 0.4 0
9.6 0.4 0
10 0.4 0
10.4 0.4 0
10.8 0.4 0
11.2 0.4 0
11.6 0.4 0
12 0.4 0
12.4 0.4 0
12.8 0.4 0
13.2 0.4 0
13.6 0.4 0
14 0.4 0
14.4 0.4 0
14.8 0.4 0
15.2 0.4 0
15.6 0.4 0
16 0.4 0
16.4 0.4 0
16.8 0.4 0
17.2 0.4 0
17.6 0.4 0
18 0.4 0
18.4 0.4 0
18.8 0.4 0
19.2 0.4 0
19.6 0.4 0
20 0.4 0
20.4 0.4 0
20.8 0.4 0
21.2 0.4 0
21.6 0.4 0
22 0.4 0
22.4 0.4 0
22.8 0.4 0
23.2 0.4 0
23.6 0.4 0
24 0.4 0
24.4 0.4 0
24.8 0.4 0
25.2 0.4 0
25.6 0.4 0
26 0.4 0
26.4 0.4 0
26.8 0.4 0
27.2 0.4 0
27.6 0.4 0
28 0.4 0
28.4 0.4 0
28.8 0.4 0
29.2 0.4 0
29.6 0.4 0
30 0.4 0
30.4 0.4 0
30.8 0.4 0
31.2 0.4 0
31.6 0.4 0
32 0.4 0
32.4 0.4 0
32.8 0.4 0
33.2 0.4 0
33.6 0.4 0
34 0.4 0
34.4 0.4 0
34.8 0.4 0
35.2 0.4 0
35.6 0.4 0
36 0.4 0
36.4 0.4 0
36.8 0.4 0
37.2 0.4 0
37.6 0.4 0
38 0.4 0
38.4 0.4 0
38.8 0.4 0
39.2 0.4 0
39.6 0.4 0
40 0.4 0
40.4 0.4 0
0 0.5 0
0.4 0.5 0
0.8 0.5 0
1.2 0.5 0
1.6 0.5 0
2 0.5 0
2.4 0.5 0
2.8 0.5 0
3.2 0.5 0
3.6 0.5 0
4 0.5 0
4.4 0.5 0
4.8 0.5 0
5.2 0.5 0
5.6 0.5 0
6 0.5 0
6.4 0.5 0
6.8 0.5 0
7.2 0.5 0
7.6 0.5 0
8 0.5 0
8.4 0.5 0
8.8 0.5 0
9.2 0.5 0
9.6 0.5 0
10 0.5 0
10.4 0.5 0
10.8 0.5 0
11.2 0.5 0
11.6 0.5 0
12 0.5 0
12.4 0.5 0
12.8 0.5 0
13.2 0.5 0
13.6 0.5 0
14 0.5 0
14.4 0.5 0
14.8 0.5 0
15.2 0.5 0
15.6 0.5 0
16 0.5 0
16.4 0.5 0
16.8 0.5 0
17.2 0.5 0
17.6 0.5 0
18 0.5 0
18.4 0.5 0
18.8 0.5 0
19.2 0.5 0
19.6 0.5 0
20 0.5 0
20.4 0.5 0
20.8 0.5 0
21.2 0.5 0
21.6 0.5 0
22 0.5 0
22.4 0.5 0
22.8 0.5 0
23.2 0.5 0
23.6 0.5 0
24 0.5 0
24.4 0.5 0
24.8 0.5 0
25.2 0.5 0
25.6 0.5 0
26 0.5 0
26.4 0.5 0
26.8 0.5 0
27.2 0.5 0
27.6 0.5 0
28 0.5 0
28.4 0.5 0
28.8 0.5 0
29.2 0.5 0
29.6 0.5 0
30 0.5 0
30.4 0.5 0
30.8 0.5 0
31.2 0.5 0
31.6 0.5 0
32 0.5 0
32.4 0.5 0
32.8 0.5 0
33.2 0.5 0
33.6 0.5 0
34 0.5 0
34.4 0.5 0
34.8 0.5 0
35.2 0.5 0
35.6 0.5 0
36 0.5 0
36.4 0.5 0
36.8 0.5 0
37.2 0.5 0
37.6 0.5 0
38 0.5 0
38.4 0.5 0
38.8 0.5 0
39.2 0.5 0
39.6 0.5 0
40 0.5 0
40.4 0.5 0
0 0.6 0
0.4 0.6 0
0.8 0.6 0
1.2 0.6 0
1.6 0.6 0
2 0.6 0
2.4 0.6 0
2.8 0.6 0
3.2 0.6 0
3.6 0.6 0
4 0.6 0
4.4 0.6 0
4.8 0.6 0
5.2 0.6 0
5.6 0.6 0
6 0.6 0
6.4 0.6 0
6.8 0.6 0
7.2 0.6 0
7.6 0.6 0
8 0.6 0
8.4 0.6 0
8.8 0.6 0
9.2 0.6 0
9.6 0.6 0
10 0.6 0
10.4 0.6 0
10.8 0.6 0
11.2 0.6 0
11.6 0.6 0
12 0.6 0
12.4 0.6 0
12.8 0.6 0
13.2 0.6 0
13.6 0.6 0
14 0.6 0
14.4 0.6 0
14.8 0.6 0
15.2 0.6 0
15.6 0.6 0
16 0.6 0
16.4 0.6 0
16.8 0.6 0
17.2 0.6 0
17.6 0.6 0
18 0.6 0
18.4 0.6 0
18.8 0.6 0
19.2 0.6 0
19.6 0.6 0
20 0.6 0
20.4 0.6 0
20.8 0.6 0
21.2 0.6 0
21.6 0.6 0
22 0.6 0
22.4 0.6 0
22.8 0.6 0
23.2 0.6 0
23.6 0.6 0
24 0.6 0
24.4 0.6 0
24.8 0.6 0
25.2 0.6 0
25.6 0.6 0
26 0.6 0
26.4 0.6 0
26.8 0.6 0
27.2 0.6 0
27.6 0.6 0
28 0.6 0
28.4 0.6 0
28.8 0.6 0
29.2 0.6 0
29.6 0.6 0
30 0.6 0
30.4 0.6 0
30.8 0.6 0
31.2 0.6 0
31.6 0.6 0
32 0.6 0
32.4 0.6 0
32.8 0.6 0
33.2 0.6 0
33.6 0.6 0
34 0.6 0
34.4 0.6 0
34.8 0.6 0
35.2 0.6 0
35.6 0.6 0
36 0.6 0
36.4 0.6 0
36.8 0.6 0
37.2 0.6 0
37.6 0.6 0
38 0.6 0
38.4 0.6 0
38.8 0.6 0
39.2 0.6 0
39.6 0.6 0
40 0.6 0
40.4 0.6 0
0 0.7 0
0.4 0.7 0
0.8 0.7 0
1.2 0.7 0
1.6 0.7 0
2 0.7 0
2.4 0.7 0
2.8 0.7 0
3.2 0.7 0
3.6 0.7 0
4 0.7 0
4.4 0.7 0
4.8 0.7 0
5.2 0.7 0
5.6 0.7 0
6 0.7 0
6.4 0.7 0
6.8 0.7 0
7.2 0.7 0
7.6 0.7 0
8 0.7 0
8.4 0.7 0
8.8 0.7 0
9.2 0.7 0
9.6 0.7 0
10 0.7 0
10.4 0.7 0
10.8 0.7 0
11.2 0.7 0
11.6 0.7 0
12 0.7 0
12.4 0.7 0
12.8 0.7 0
13.2 0.7 0
13.6 0.7 0
14 0.7 0
14.4 0.7 0
14.8 0.7 0
15.2 0.7 0
15.6 0.7 0
16 0.7 0
16.4 0.7 0
16.8 0.7 0
17.2 0.7 0
17.6 0.7 0
18 0.7 0
18.4 0.7 0
18.8 0.7 0
19.2 0.7 0
19.6 0.7 0
20 0.7 0
20.4 0.7 0
20.8 0.7 0
21.2 0.7 0
21.6 0.7 0
22 0.7 0
22.4 0.7 0
22.8 0.7 0
23.2 0.7 0
23.6 0.7 0
24 0.7 0
24.4 0.7 0
24.8 0.7 0
25.2 0.7 0
25.6 0.7 0
26 0.7 0
26.4 0.7 0
26.8 0.7 0
27.2 0.7 0
27.6 0.7 0
28 0.7 0
28.4 0.7 0
28.8 0.7 0
29.2 0.7 0
29.6 0.7 0
30 0.7 0
30.4 0.7 0
30.8 0.7 0
31.2 0.7 0
31.6 0.7 0
32 0.7 0
32.4 0.7 0
32.8 0.7 0
33.2 0.7 0
33.6 0.7 0
34 0.7 0
34.4 0.7 0
34.8 0.7 0
35.2 0.7 0
35.6 0.7 0
36 0.7 0
36.4 0.7 0
36.8 0.7 0
37.2 0.7 0
37.6 0.7 0
38 0.7 0
38.4 0.7 0
38.8 0.7 0
39.2 0.7 0
39.6 0.7 0
40 0.7 0
40.4 0.7 0
0 0.8 0
0.4 0.8 0
0.8 0.8 0
1.2 0.8 0
1.6 0.8 0
2 0.8 0
2.4 0.8 0
2.8 0.8 0
3.2 0.8 0
3.6 0.8 0
4 0.8 0
4.4 0.8 0
4.8 0.8 0
5.2 0.8 0
5.6 0.8 0
6 0.8 0
6.4 0.8 0
6.8 0.8 0
7.2 0.8 0
7.6 0.8 0
8 0.8 0
8.4 0.8 0
8.8 0.8 0
9.2 0.8 0
9.6 0.8 0
10 0.8 0
10.4 0.8 0
10.8 0.8 0
11.2 0.8 0
11.6 0.8 0
12 0.8 0
12.4 0.8 0
12.8 0.8 0
13.2 0.8 0
13.6 0.8 0
14 0.8 0
14.4 0.8 0
14.8 0.8 0
15.2 0.8 0
15.6 0.8 0
16 0.8 0
16.4 0.8 0
16.8 0.8 0
17.2 0.8 0
17.6 0.8 0
18 0.8 0
18.4 0.8 0
18.8 0.8 0
19.2 0.8 0
19.6 0.8 0
20 0.8 0
20.4 0.8 0
20.8 0.8 0
21.2 0.8 0
21.6 0.8 0
22 0.8 0
22.4 0.8 0
22.8 0.8 0
23.2 0.8 0
23.6 0.8 0
24 0.8 0
24.4 0.8 0
24.8 0.8 0
25.2 0.8 0
25.6 0.8 0
26 0.8 0
26.4 0.8 0
26.8 0.8 0
27.2 0.8 0
27.6 0.8 0
28 0.8 0
28.4 0.8 0
28.8 0.8 0
29.2 0.8 0
29.6 0.8 0
30 0.8 0
30.4 0.8 0
30.8 0.8 0
31.2 0.8 0
31.6 0.8 0
32 0.8 0
32.4 0.8 0
32.8 0.8 0
33.2 0.8 0
33.6 0.8 0
34 0.8 0
34.4 0.8 0
34.8 0.8 0
35.2 0.8 0
35.6 0.8 0
36 0.8 0
36.4 0.8 0
36.8 0.8 0
37.2 0.8 0
37.6 0.8 0
38 0.8 0
38.4 0.8 0
38.8 0.8 0
39.2 0.8 0
39.6 0.8 0
40 0.8 0
40.4 0.8 0
0 0.9 0
0.4 0.9 0
0.8 0.9 0
1.2 0.9 0
1.6 0.9 0
2 0.9 0
2.4 0.9 0
2.8 0.9 0
3.2 0.9 0
3.6 0.9 0
4 0.9 0
4.4 0.9 0
4.8 0.9 0
5.2 0.9 0
5.6 0.9 0
6 0.9 0
6.4 0.9 0
6.8 0.9 0
7.2 0.9 0
7.6 0.9 0
8 0.9 0
8.4 0.9 0
8.8 0.9 0
9.2 0.9 0
9.6 0.9 0
10 0.9 0
10.4 0.9 0
10.8 0.9 0
11.2 0.9 0
11.6 0.9 0
12 0.9 0
12.4 0.9 0
12.8 0.9 0
13.2 0.9 0
13.6 0.9 0
14 0.9 0
14.4 0.9 0
14.8 0.9 0
15.2 0.9 0
15.6 0.9 0
16 0.9 0
16.4 0.9 0
16.8 0.9 0
17.2 0.9 0
17.6 0.9 0
18 0.9 0
18.4 0.9 0
18.8 0.9 0
19.2 0.9 0
19.6 0.9 0
20 0.9 0
20.4 0.9 0
20.8 0.9 0
21.2 0.9 0
21.6 0.9 0
22 0.9 0
22.4 0.9 0
22.8 0.9 0
23.2 0.9 0
23.6 0.9 0
24 0.9 0
24.4 0.9 0
24.8 0.9 0
25.2 0.9 0
25.6 0.9 0
26 0.9 0
26.4 0.9 0
26.8 0.9 0
27.2 0.9 0
27.6 0.9 0
28 0.9 0
28.4 0.9 0
28.8 0.9 0
29.2 0.9 0
29.6 0.9 0
30 0.9 0
30.4 0.9 0
30.8 0.9 0
31.2 0.9 0
31.6 0.9 0
32 0.9 0
32.4 0.9 0
32.8 0.9 0
33.2 0.9 0
33.6 0.9 0
34 0.9 0
34.4 0.9 0
34.8 0.9 0
35.2 0.9 0
35.6 0.9 0
36 0.9 0
36.4 0.9 0
36.8 0.9 0
37.2 0.9 0
37.6 0.9 0
38 0.9 0
38.4 0.9 0
38.8 0.9 0
39.2 0.9 0
39.6 0.9 0
40 0.9 0
40.4 0.9 0
0 1 0
0.4 1 0
0.8 1 0
1.2 1 0
1.6 1 0
2 1 0
2.4 1 0
2.8 1 0
3.2 1 0
3.6 1 0
4 1 0
4.4 1 0
4.8 1 0
5.2 1 0
5.6 1 0
6 1 0
6.4 1 0
6.8 1 0
7.2 1 0
7.6 1 0
8 1 0
8.4 1 0
8.8 1 0
9.2 1 0
9.6 1 0
10 1 0
10.4 1 0
10.8 1 0
11.2 1 0
11.6 1 0
12 1 0
12.4 1 0
12.8 1 0
13.2 1 0
13.6 1 0
14 1 0
14.4 1 0
14.8 1 0
15.2 1 0
15.6 1 0
16 1 0
16.4 1 0
16.8 1 0
17.2 1 0
17.6 1 0
18 1 0
18.4 1 0
18.8 1 0
19.2 1 0
19.6 1 0
20 1 0
20.4 1 0
20.8 1 0
21.2 1 0
21.6 1 0
22 1 0
22.4 1 0
22.8 1 0
23.2 1 0
23.6 1 0
24 1 0
24.4 1 0
24.8 1 0
25.2 1 0
25.6 1 0
26 1 0
26.4 1 0
26.8 1 0
27.2 1 0
27.6 1 0
28 1 0
28.4 1 0
28.8 1 0
29.2 1 0
29.6 1 0
30 1 0
30.4 1 0
30.8 1 0
31.2 1 0
31.6 1 0
32 1 0
32.4 1 0
32.8 1 0
33.2 1 0
33.6 1 0
34 1 0
34.4 1 0
34.8 1 0
35.2 1 0
35.6 1 0
36 1 0
36.4 1 0
36.8 1 0
37.2 1 0
37.6 1 0
38 1 0
38.4 1 0
38.8 1 0
39.2 1 0
39.6 1 0
40 1 0
40.4 1 0
0 1.1 0
0.4 1.1 0
0.8 1.1 0
1.2 1.1 0
1.6 1.1 0
2 1.1 0
2.4 1.1 0
2.8 1.1 0
3.2 1.1 0
3.6 1.1 0
4 1.1 0
4.4 1.1 0
4.8 1.1 0
5.2 1.1 0
5.6 1.1 0
6 1.1 0
6.4 1.1 0
6.8 1.1 0
7.2 1.1 0
7.6 1.1 0
8 1.1 0
8.4 1.1 0
8.8 1.1 0
9.2 1.1 0
9.6 1.1 0
10 1.1 0
10.4 1.1 0
10.8 1.1 0
11.2 1.1 0
11.6 1.1 0
12 1.1 0
12.4 1.1 0
12.8 1.1 0
13.2 1.1 0
13.6 1.1 0
14 1.1 0
14.4 1.1 0
14.8 1.1 0
15.2 1.1 0
15.6 1.1 0
16 1.1 0
16.4 1.1 0
16.8 1.1 0
17.2 1.1 0
17.6 1.1 0
18 1.1 0
18.4 1.1 0
18.8 1.1 0
19.2 1.1 0
19.6 1.1 0
20 1.1 0
20.4 1.1 0
20.8 1.1 0
21.2 1.1 0
21.6 1.1 0
22 1.1 0
22.4 1.1 0
22.8 1.1 0
23.2 1.1 0
23.6 1.1 0
24 1.1 0
24.4 1.1 0
24.8 1.1 0
25.2 1.1 0
25.6 1.1 0
26 1.1 0
26.4 1.1 0
26.8 1.1 0
27.2 1.1 0
27.6 1.1 0
28 1.1 0
28.4 1.1 0
28.8 1.1 0
29.2 1.1 0
29.6 1.1 0
30 1.1 0
30.4 1.1 0
30.8 1.1 0
31.2 1.1 0
31.6 1.1 0
32 1.1 0
32.4 1.1 0
32.8 1.1 0
33.2 1.1 0
33.6 1.1 0
34 1.1 0
34.4 1.1 0
34.8 1.1 0
35.2 1.1 0
35.6 1.1 0
36 1.1 0
36.4 1.1 0
36.8 1.1 0
37.2 1.1 0
37.6 1.1 0
38 1.1 0
38.4 1.1 0
38.8 1.1 0
39.2 1.1 0
39.6 1.1 0
40 1.1 0
40.4 1.1 0

POINT_DATA 1224

SCALARS phi double
LOOKUP_TABLE default
1
0.999999
1
0.999488
0.998066
0.996727
0.993165
0.979214
0.94613
0.890427
0.814913
0.726149
0.631441
0.536986
0.447241
0.365029
0.291901
0.228516
0.174922
0.130739
0.0952751
0.0676064
0.0466591
0.0312918
0.0203789
0.0128824
0.00790262
0.00470412
0.00271738
0.00152361
0.000829404
0.000438513
0.000225267
0.000112486
5.46249e-05
2.58094e-05
1.18706e-05
5.3173e-06
2.32082e-06
9.87499e-07
4.09811e-07
1.65953e-07
6.56055e-08
2.53305e-08
9.55621e-09
3.52411e-09
1.2709e-09
4.48383e-10
1.5482e-10
5.23373e-11
1.73284e-11
5.62106e-12
1.78707e-12
5.57022e-13
1.70274e-13
5.10627e-14
1.50269e-14
4.34081e-15
1.23121e-15
3.42979e-16
9.38634e-17
2.52422e-17
6.67221e-18
1.73391e-18
4.43101e-19
1.11377e-19
2.75422e-20
6.70204e-21
1.60513e-21
3.78442e-22
8.7853e-23
2.00847e-23
4.52282e-24
1.00338e-24
2.19335e-25
4.72514e-26
1.00336e-26
2.10042e-27
4.33543e-28
8.82472e-29
1.77165e-29
3.50855e-30
6.85508e-31
1.32158e-31
2.51438e-32
4.72151e-33
8.75187e-34
1.60157e-34
2.89383e-35
5.16334e-36
9.09857e-37
1.58362e-37
2.72278e-38
4.62494e-39
7.76212e-40
1.2873e-40
2.10985e-41
3.41777e-42
5.47249e-43
8.66525e-44
1.30712e-44
1.30712e-44
1
0.999999
1
0.999488
0.998066
0.996727
0.993165
0.979214
0.94613
0.890427
0.814913
0.726149
0.631441
0.536986
0.447241
0.365029
0.291901
0.228516
0.174922
0.130739
0.0952751
0.0676064
0.0466591
0.0312918
0.0203789
0.0128824
0.00790262
0.00470412
0.00271738
0.00152361
0.000829404
0.000438513
0.000225267
0.000112486
5.46249e-05
2.58094e-05
1.18706e-05
5.3173e-06
2.32082e-06
9.87499e-07
4.09811e-07
1.65953e-07
6.56055e-08
2.53305e-08
9.55621e-09
3.52411e-09
1.2709e-09
4.48383e-10
1.5482e-10
5.23373e-11
1.73284e-11
5.62106e-12
1.78707e-12
5.57022e-13
1.70274e-13
5.10627e-14
1.50269e-14
4.34081e-15
1.23121e-15
3.42979e-16
9.38634e-17
2.52422e-17
6.67221e-18
1.73391e-18
4.43101e-19
1.11377e-19
2.75422e-20
6.70204e-21
1.60513e-21
3.78442e-22
8.7853e-23
2.00847e-23
4.52282e-24
1.00338e-24
2.19335e-25
4.72514e-26
1.00336e-26
2.10042e-27
4.33543e-28
8.82472e-29
1.77165e-29
3.50855e-30
6.85508e-31
1.32158e-31
2.51438e-32
4.72151e-33
8.75187e-34
1.60157e-34
2.89383e-35
5.16334e-36
9.09857e-37
1.58362e-37
2.72278e-38
4.62494e-39
7.76212e-40
1.2873e-40
2.10985e-41
3.41777e-42
5.47249e-43
8.66525e-44
1.30712e-44
1.30712e-44
0.999997
1
0.999572
0.998174
0.995264
0.991275
0.986183
0.977248
0.95943
0.928111
0.881392
0.820534
0.748967
0.670928
0.590405
0.510615
0.433915
0.361955
0.2959
0.236594
0.184628
0.140323
0.103683
0.074368
0.0517223
0.0348538
0.0227461
0.0143736
0.00879509
0.00521215
0.00299251
0.00166525
0.000898582
0.000470438
0.000239088
0.000118024
5.66239e-05
2.64177e-05
1.19925e-05
5.30012e-06
2.28176e-06
9.57407e-07
3.91737e-07
1.56381e-07
6.09374e-08
2.31899e-08
8.62249e-09
3.13384e-09
1.11384e-09
3.87297e-10
1.31802e-10
4.3916e-11
1.4332e-11
4.58285e-12
1.43634e-12
4.41384e-13
1.33032e-13
3.93383e-14
1.14163e-14
3.25243e-15
9.09896e-16
2.50032e-16
6.75045e-17
1.79109e-17
4.67151e-18
1.198e-18
3.02147e-19
7.49619e-20
1.82987e-20
4.39589e-21
1.03948e-21
2.41997e-22
5.54776e-23
1.25262e-23
2.78612e-24
6.10568e-25
1.31855e-25
2.80651e-26
5.8886e-27
1.21816e-27
2.48493e-28
4.99925e-29
9.92072e-30
1.9422e-30
3.7516e-31
7.15109e-32
1.34531e-32
2.49815e-33
4.57956e-34
8.28875e-35
1.48139e-35
2.61466e-36
4.55806e-37
7.84897e-38
1.33525e-38
2.24428e-39
3.72737e-40
6.11769e-41
9.92362e-42
1.59169e-42
2.4262e-43
2.4262e-43
1.00047
0.999528
0.995355
0.988503
0.979203
0.968194
0.956327
0.943586
0.928587
0.909022
0.882645
0.848106
0.805252
0.754925
0.698527
0.637584
0.573494
0.507501
0.440826
0.374833
0.311103
0.251348
0.197204
0.149965
0.110376
0.0785531
0.0540277
0.0359046
0.0230564
0.0143107
0.00858889
0.00498711
0.00280321
0.00152627
0.000805506
0.000412344
0.000204879
9.88724e-05
4.63742e-05
2.11535e-05
9.38992e-06
4.05864e-06
1.70919e-06
7.01677e-07
2.80968e-07
1.09794e-07
4.18908e-08
1.56131e-08
5.68714e-09
2.02547e-09
7.05623e-10
2.40556e-10
8.02838e-11
2.62408e-11
8.40277e-12
2.63707e-12
8.11378e-13
2.44834e-13
7.24779e-14
2.10552e-14
6.00432e-15
1.68129e-15
4.62403e-16
1.24943e-16
3.31763e-17
8.6593e-18
2.22219e-18
5.60823e-19
1.39225e-19
3.40056e-20
8.17374e-21
1.93384e-21
4.50438e-22
1.03313e-22
2.33376e-23
5.19312e-24
1.13853e-24
2.45971e-25
5.23747e-26
1.09933e-26
2.27497e-27
4.64231e-28
9.34261e-29
1.85458e-29
3.63184e-30
7.01743e-31
1.338e-31
2.51782e-32
4.67669e-33
8.5754e-34
1.55248e-34
2.77531e-35
4.89957e-36
8.5432e-37
1.47146e-37
2.50374e-38
4.20914e-39
6.99209e-40
1.14782e-40
1.86292e-41
2.86931e-42
2.86931e-42
1.00913
0.990872
0.963597
0.93636
0.910565
0.886751
0.865222
0.845907
0.828217
0.811051
0.793015
0.772732
0.74911
0.721445
0.689357
0.652625
0.61105
0.564458
0.512869
0.45676
0.397295
0.336361
0.276369
0.219861
0.16906
0.125509
0.0899055
0.0621269
0.041419
0.0266496
0.0165564
0.00993787
0.0057672
0.00323816
0.00176041
0.000927348
0.000473704
0.000234816
0.000113035
5.28776e-05
2.40543e-05
1.06478e-05
4.58931e-06
1.92714e-06
7.88884e-07
3.14982e-07
1.22733e-07
4.66948e-08
1.73546e-08
6.30386e-09
2.23893e-09
7.77871e-10
2.64476e-10
8.80347e-11
2.86996e-11
9.16677e-12
2.86965e-12
8.80772e-13
2.65134e-13
7.8302e-14
2.26945e-14
6.45712e-15
1.80406e-15
4.95086e-16
1.33488e-16
3.53714e-17
9.21333e-18
2.35962e-18
5.94338e-19
1.47261e-19
3.59007e-20
8.61335e-21
2.03416e-21
4.72968e-22
1.08292e-22
2.4421e-23
5.42515e-24
1.18747e-24
2.56134e-25
5.44535e-26
1.14122e-26
2.35811e-27
4.80489e-28
9.65588e-29
1.91406e-29
3.74315e-30
7.2227e-31
1.37531e-31
2.58466e-32
4.79471e-33
8.78081e-34
1.58772e-34
2.83488e-35
4.99884e-36
8.70621e-37
1.49783e-37
2.54578e-38
4.27513e-39
7.09405e-40
1.16373e-40
1.80998e-41
1.80998e-41
1.10476
0.895236
0.791779
0.734425
0.698353
0.673547
0.655459
0.641692
0.63078
0.621641
0.613336
0.604991
0.595806
0.585061
0.572059
0.556023
0.536005
0.510913
0.47972
0.441826
0.397436
0.347782
0.295058
0.242064
0.191677
0.146324
0.107623
0.0762564
0.0520609
0.0342608
0.0217468
0.0133232
0.00788448
0.00451069
0.00249673
0.00133819
0.000695078
0.000350154
0.00017121
8.13138e-05
3.75383e-05
1.68562e-05
7.36718e-06
3.136e-06
1.3009e-06
5.26211e-07
2.07664e-07
7.99978e-08
3.00976e-08
1.10646e-08
3.97639e-09
1.39761e-09
4.80638e-10
1.61793e-10
5.33314e-11
1.72209e-11
5.44923e-12
1.69034e-12
5.14189e-13
1.53433e-13
4.49266e-14
1.29124e-14
3.64381e-15
1.00989e-15
2.74966e-16
7.35679e-17
1.93469e-17
5.00215e-18
1.27183e-18
3.18073e-19
7.82618e-20
1.89493e-20
4.51592e-21
1.0595e-21
2.44762e-22
5.56874e-23
1.24803e-23
2.75564e-24
5.9956e-25
1.28566e-25
2.71756e-26
5.66318e-27
1.1637e-27
2.35823e-28
4.71372e-29
9.29474e-30
1.80829e-30
3.47152e-31
6.57731e-32
1.23003e-32
2.27077e-33
4.13886e-34
7.44887e-35
1.3239e-35
2.32395e-36
4.02953e-37
6.90222e-38
1.16809e-38
1.95329e-39
3.22886e-40
5.05799e-41
5.05799e-41
-0.104763
0.104763
0.208221
0.265584
0.301654
0.326441
0.344525
0.358339
0.369302
0.37825
0.385648
0.391711
0.396484
0.399863
0.401552
0.40096
0.39713
0.388781
0.374551
0.353387
0.324989
0.290095
0.25049
0.208702
0.167505
0.129383
0.0961435
0.0687355
0.0472962
0.0313411
0.0200154
0.0123293
0.00733176
0.00421275
0.00234097
0.00125916
0.000656131
0.000331504
0.000162526
7.73794e-05
3.58029e-05
1.61105e-05
7.05489e-06
3.00846e-06
1.25008e-06
5.06438e-07
2.00151e-07
7.72082e-08
2.90851e-08
1.07051e-08
3.85152e-09
1.35516e-09
4.66502e-10
1.57182e-10
5.18579e-11
1.67592e-11
5.30738e-12
1.64759e-12
5.01545e-13
1.49763e-13
4.38805e-14
1.26195e-14
3.56328e-15
9.88127e-16
2.69186e-16
7.20586e-17
1.89593e-17
4.90426e-18
1.2475e-18
3.12124e-19
7.68299e-20
1.861e-20
4.43675e-21
1.04131e-21
2.40644e-22
5.4769e-23
1.22784e-23
2.71193e-24
5.90226e-25
1.26601e-25
2.67678e-26
5.5797e-27
1.14684e-27
2.32465e-28
4.64772e-29
9.16673e-30
1.78379e-30
3.42522e-31
6.49096e-32
1.21412e-32
2.24185e-33
4.08691e-34
7.35672e-35
1.30775e-35
2.296e-36
3.98172e-37
6.82142e-38
1.1546e-38
1.93101e-39
3.19249e-40
5.00169e-41
5.00169e-41
-0.00912619
0.00912619
0.0364069
0.0636562
0.0894275
0.11321
0.134804
0.154271
0.171817
0.18768
0.202075
0.215164
0.227042
0.237688
0.246875
0.254062
0.25834
0.258517
0.253374
0.242035
0.224332
0.200999
0.173612
0.144291
0.115267
0.0884686
0.0652397
0.0462429
0.0315256
0.0206877
0.013079
0.00797359
0.00469211
0.00266766
0.00146672
0.000780576
0.000402455
0.000201198
9.76083e-05
4.59882e-05
2.10585e-05
9.37857e-06
4.0651e-06
1.71598e-06
7.05872e-07
2.83121e-07
1.10789e-07
4.23183e-08
1.57869e-08
5.75455e-09
2.0506e-09
7.14658e-10
2.43699e-10
8.13442e-11
2.65883e-11
8.51357e-12
2.67147e-12
8.21786e-13
2.47906e-13
7.33626e-14
2.1304e-14
6.07267e-15
1.69964e-15
4.67212e-16
1.26175e-16
3.34848e-17
8.73474e-18
2.2402e-18
5.65018e-19
1.40177e-19
3.42161e-20
8.21895e-21
1.94324e-21
4.52324e-22
1.03675e-22
2.34035e-23
5.20419e-24
1.14018e-24
2.46157e-25
5.23782e-26
1.09865e-26
2.272e-27
4.63305e-28
9.31762e-29
1.84836e-29
3.61722e-30
6.98446e-31
1.33083e-31
2.50265e-32
4.64545e-33
8.51253e-34
1.5401e-34
2.75139e-35
4.85425e-36
8.4588e-37
1.45601e-37
2.47591e-38
4.15978e-39
6.90583e-40
1.13336e-40
1.76348e-41
1.76348e-41
-0.000467032
0.000467032
0.00465747
0.0115187
0.0207359
0.0317578
0.043967
0.0568551
0.0700547
0.0832999
0.0963777
0.109091
0.121217
0.13245
0.142322
0.150159
0.155107
0.156268
0.152939
0.144858
0.132365
0.11641
0.0983816
0.0798307
0.0621779
0.0464923
0.0333898
0.0230482
0.0153045
0.00978502
0.00602962
0.00358454
0.00205787
0.001142
0.000613179
0.000318839
0.000160695
7.85666e-05
3.72933e-05
1.71993e-05
7.71246e-06
3.36498e-06
1.42944e-06
5.91585e-07
2.38671e-07
9.39214e-08
3.60702e-08
1.35264e-08
4.95544e-09
1.77443e-09
6.21311e-10
2.12828e-10
7.13507e-11
2.34205e-11
7.52991e-12
2.37216e-12
7.32507e-13
2.21792e-13
6.58707e-14
1.9195e-14
5.48995e-15
1.54157e-15
4.25105e-16
1.15157e-16
3.06522e-17
8.01903e-18
2.06244e-18
5.21608e-19
1.29752e-19
3.17535e-20
7.64661e-21
1.81235e-21
4.22862e-22
9.71468e-23
2.19794e-23
4.89829e-24
1.07546e-24
2.32669e-25
4.9609e-26
1.04263e-26
2.16032e-27
4.41365e-28
8.89272e-29
1.76724e-29
3.46454e-30
6.70111e-31
1.27897e-31
2.40907e-32
4.47887e-33
8.22007e-34
1.48945e-34
2.66487e-35
4.70845e-36
8.21641e-37
1.41625e-37
2.41158e-38
4.0571e-39
6.74419e-40
1.10786e-40
1.79924e-41
2.77292e-42
2.77292e-42
9.54018e-06
-9.54018e-06
0.000455969
0.00182881
0.00456371
0.00890967
0.0148769
0.0223188
0.03099
0.0405615
0.0506224
0.0606863
0.070202
0.0785662
0.085148
0.089341
0.090652
0.088811
0.0838662
0.0762219
0.0665941
0.0558882
0.0450378
0.0348504
0.0259026
0.0185018
0.0127094
0.0084029
0.00535195
0.00328682
0.00194818
0.00111552
0.000617627
0.000330951
0.000171779
8.64394e-05
4.22027e-05
2.00075e-05
9.2171e-06
4.12907e-06
1.79996e-06
7.64025e-07
3.15979e-07
1.274e-07
5.01064e-08
1.92336e-08
7.20937e-09
2.6401e-09
9.45012e-10
3.30784e-10
1.13275e-10
3.79651e-11
1.24587e-11
4.0047e-12
1.26134e-12
3.89422e-13
1.17891e-13
3.50071e-14
1.01997e-14
2.91681e-15
8.18933e-16
2.25804e-16
6.11615e-17
1.62781e-17
4.25817e-18
1.09507e-18
2.7693e-19
6.88821e-20
1.68558e-20
4.05878e-21
9.61918e-22
2.24423e-22
5.15548e-23
1.16635e-23
2.59916e-24
5.70631e-25
1.23446e-25
2.63194e-26
5.53123e-27
1.14601e-27
2.34124e-28
4.71694e-29
9.37346e-30
1.83751e-30
3.55393e-31
6.7827e-32
1.27753e-32
2.37503e-33
4.35868e-34
7.89744e-35
1.41291e-35
2.4963e-36
4.35593e-37
7.50792e-38
1.27838e-38
2.15058e-39
3.57476e-40
5.87203e-41
9.53266e-42
1.53016e-42
2.33407e-43
2.33407e-43
5.8215e-06
-5.8215e-06
4.36173e-05
0.00044113
0.00169941
0.00429547
0.0084737
0.0142322
0.0213441
0.0293711
0.0376993
0.0456068
0.0523556
0.0572892
0.0599259
0.0600307
0.0576525
0.053116
0.0469645
0.039865
0.0324964
0.0254493
0.0191571
0.0138694
0.00966401
0.00648564
0.0041956
0.00261845
0.00157787
0.00091885
0.00051753
0.000282165
0.00014904
7.63271e-05
3.79282e-05
1.8301e-05
8.58073e-06
3.9121e-06
1.73547e-06
7.49586e-07
3.15416e-07
1.29377e-07
5.17588e-08
2.02067e-08
7.70223e-09
2.86787e-09
1.04358e-09
3.71296e-10
1.29219e-10
4.40072e-11
1.46721e-11
4.79069e-12
1.53251e-12
4.80465e-13
1.47681e-13
4.45183e-14
1.31656e-14
3.8209e-15
1.08854e-15
3.04511e-16
8.36684e-17
2.25859e-17
5.99162e-18
1.5624e-18
4.00579e-19
1.01003e-19
2.50513e-20
6.11326e-21
1.4681e-21
3.47034e-22
8.07623e-23
1.85076e-23
4.17718e-24
9.28723e-25
2.03441e-25
4.39155e-26
9.34324e-27
1.95953e-27
4.05181e-28
8.26152e-29
1.66131e-29
3.29525e-30
6.44814e-31
1.24495e-31
2.37193e-32
4.46008e-33
8.27813e-34
1.5168e-34
2.74399e-35
4.90176e-36
8.64744e-37
1.50675e-37
2.59336e-38
4.40962e-39
7.40806e-40
1.22976e-40
2.0174e-41
3.27093e-42
5.24191e-43
8.30709e-44
1.25408e-44
1.25408e-44
5.8215e-06
-5.8215e-06
4.36173e-05
0.00044113
0.00169941
0.00429547
0.0084737
0.0142322
0.0213441
0.0293711
0.0376993
0.0456068
0.0523556
0.0572892
0.0599259
0.0600307
0.0576525
0.053116
0.0469645
0.039865
0.0324964
0.0254493
0.0191571
0.0138694
0.00966401
0.00648564
0.0041956
0.00261845
0.00157787
0.00091885
0.00051753
0.000282165
0.00014904
7.63271e-05
3.79282e-05
1.8301e-05
8.58073e-06
3.9121e-06
1.73547e-06
7.49586e-07
3.15416e-07
1.29377e-07
5.17588e-08
2.02067e-08
7.70223e-09
2.86787e-09
1.04358e-09
3.71296e-10
1.29219e-10
4.40072e-11
1.46721e-11
4.79069e-12
1.53251e-12
4.80465e-13
1.47681e-13
4.45183e-14
1.31656e-14
3.8209e-15
1.08854e-15
3.04511e-16
8.36684e-17
2.25859e-17
5.99162e-18
1.5624e-18
4.00579e-19
1.01003e-19
2.50513e-20
6.11326e-21
1.4681e-21
3.47034e-22
8.07623e-23
1.85076e-23
4.17718e-24
9.28723e-25
2.03441e-25
4.39155e-26
9.34324e-27
1.95953e-27
4.05181e-28
8.26152e-29
1.66131e-29
3.29525e-30
6.44814e-31
1.24495e-31
2.37193e-32
4.46008e-33
8.27813e-34
1.5168e-34
2.74399e-35
4.90176e-36
8.64744e-37
1.50675e-37
2.59336e-38
4.40962e-39
7.40806e-40
1.22976e-40
2.0174e-41
3.27093e-42
5.24191e-43
8.30709e-44
1.25408e-44
1.25408e-44
