# vtk DataFile Version 2.0
FlowField
ASCII
DATASET STRUCTURED_GRID
DIMENSIONS 102 13 1 
POINTS 1326 double
0 0 0
0.3 0 0
0.6 0 0
0.9 0 0
1.2 0 0
1.5 0 0
1.8 0 0
2.1 0 0
2.4 0 0
2.7 0 0
3 0 0
3.3 0 0
3.6 0 0
3.9 0 0
4.2 0 0
4.5 0 0
4.8 0 0
5.1 0 0
5.4 0 0
5.7 0 0
6 0 0
6.3 0 0
6.6 0 0
6.9 0 0
7.2 0 0
7.5 0 0
7.8 0 0
8.1 0 0
8.4 0 0
8.7 0 0
9 0 0
9.3 0 0
9.6 0 0
9.9 0 0
10.2 0 0
10.5 0 0
10.8 0 0
11.1 0 0
11.4 0 0
11.7 0 0
12 0 0
12.3 0 0
12.6 0 0
12.9 0 0
13.2 0 0
13.5 0 0
13.8 0 0
14.1 0 0
14.4 0 0
14.7 0 0
15 0 0
15.3 0 0
15.6 0 0
15.9 0 0
16.2 0 0
16.5 0 0
16.8 0 0
17.1 0 0
17.4 0 0
17.7 0 0
18 0 0
18.3 0 0
18.6 0 0
18.9 0 0
19.2 0 0
19.5 0 0
19.8 0 0
20.1 0 0
20.4 0 0
20.7 0 0
21 0 0
21.3 0 0
21.6 0 0
21.9 0 0
22.2 0 0
22.5 0 0
22.8 0 0
23.1 0 0
23.4 0 0
23.7 0 0
24 0 0
24.3 0 0
24.6 0 0
24.9 0 0
25.2 0 0
25.5 0 0
25.8 0 0
26.1 0 0
26.4 0 0
26.7 0 0
27 0 0
27.3 0 0
27.6 0 0
27.9 0 0
28.2 0 0
28.5 0 0
28.8 0 0
29.1 0 0
29.4 0 0
29.7 0 0
30 0 0
30.3 0 0
0 0.1 0
0.3 0.1 0
0.6 0.1 0
0.9 0.1 0
1.2 0.1 0
1.5 0.1 0
1.8 0.1 0
2.1 0.1 0
2.4 0.1 0
2.7 0.1 0
3 0.1 0
3.3 0.1 0
3.6 0.1 0
3.9 0.1 0
4.2 0.1 0
4.5 0.1 0
4.8 0.1 0
5.1 0.1 0
5.4 0.1 0
5.7 0.1 0
6 0.1 0
6.3 0.1 0
6.6 0.1 0
6.9 0.1 0
7.2 0.1 0
7.5 0.1 0
7.8 0.1 0
8.1 0.1 0
8.4 0.1 0
8.7 0.1 0
9 0.1 0
9.3 0.1 0
9.6 0.1 0
9.9 0.1 0
10.2 0.1 0
10.5 0.1 0
10.8 0.1 0
11.1 0.1 0
11.4 0.1 0
11.7 0.1 0
12 0.1 0
12.3 0.1 0
12.6 0.1 0
12.9 0.1 0
13.2 0.1 0
13.5 0.1 0
13.8 0.1 0
14.1 0.1 0
14.4 0.1 0
14.7 0.1 0
15 0.1 0
15.3 0.1 0
15.6 0.1 0
15.9 0.1 0
16.2 0.1 0
16.5 0.1 0
16.8 0.1 0
17.1 0.1 0
17.4 0.1 0
17.7 0.1 0
18 0.1 0
18.3 0.1 0
18.6 0.1 0
18.9 0.1 0
19.2 0.1 0
19.5 0.1 0
19.8 0.1 0
20.1 0.1 0
20.4 0.1 0
20.7 0.1 0
21 0.1 0
21.3 0.1 0
21.6 0.1 0
21.9 0.1 0
22.2 0.1 0
22.5 0.1 0
22.8 0.1 0
23.1 0.1 0
23.4 0.1 0
23.7 0.1 0
24 0.1 0
24.3 0.1 0
24.6 0.1 0
24.9 0.1 0
25.2 0.1 0
25.5 0.1 0
25.8 0.1 0
26.1 0.1 0
26.4 0.1 0
26.7 0.1 0
27 0.1 0
27.3 0.1 0
27.6 0.1 0
27.9 0.1 0
28.2 0.1 0
28.5 0.1 0
28.8 0.1 0
29.1 0.1 0
29.4 0.1 0
29.7 0.1 0
30 0.1 0
30.3 0.1 0
0 0.2 0
0.3 0.2 0
0.6 0.2 0
0.9 0.2 0
1.2 0.2 0
1.5 0.2 0
1.8 0.2 0
2.1 0.2 0
2.4 0.2 0
2.7 0.2 0
3 0.2 0
3.3 0.2 0
3.6 0.2 0
3.9 0.2 0
4.2 0.2 0
4.5 0.2 0
4.8 0.2 0
5.1 0.2 0
5.4 0.2 0
5.7 0.2 0
6 0.2 0
6.3 0.2 0
6.6 0.2 0
6.9 0.2 0
7.2 0.2 0
7.5 0.2 0
7.8 0.2 0
8.1 0.2 0
8.4 0.2 0
8.7 0.2 0
9 0.2 0
9.3 0.2 0
9.6 0.2 0
9.9 0.2 0
10.2 0.2 0
10.5 0.2 0
10.8 0.2 0
11.1 0.2 0
11.4 0.2 0
11.7 0.2 0
12 0.2 0
12.3 0.2 0
12.6 0.2 0
12.9 0.2 0
13.2 0.2 0
13.5 0.2 0
13.8 0.2 0
14.1 0.2 0
14.4 0.2 0
14.7 0.2 0
15 0.2 0
15.3 0.2 0
15.6 0.2 0
15.9 0.2 0
16.2 0.2 0
16.5 0.2 0
16.8 0.2 0
17.1 0.2 0
17.4 0.2 0
17.7 0.2 0
18 0.2 0
18.3 0.2 0
18.6 0.2 0
18.9 0.2 0
19.2 0.2 0
19.5 0.2 0
19.8 0.2 0
20.1 0.2 0
20.4 0.2 0
20.7 0.2 0
21 0.2 0
21.3 0.2 0
21.6 0.2 0
21.9 0.2 0
22.2 0.2 0
22.5 0.2 0
22.8 0.2 0
23.1 0.2 0
23.4 0.2 0
23.7 0.2 0
24 0.2 0
24.3 0.2 0
24.6 0.2 0
24.9 0.2 0
25.2 0.2 0
25.5 0.2 0
25.8 0.2 0
26.1 0.2 0
26.4 0.2 0
26.7 0.2 0
27 0.2 0
27.3 0.2 0
27.6 0.2 0
27.9 0.2 0
28.2 0.2 0
28.5 0.2 0
28.8 0.2 0
29.1 0.2 0
29.4 0.2 0
29.7 0.2 0
30 0.2 0
30.3 0.2 0
0 0.3 0
0.3 0.3 0
0.6 0.3 0
0.9 0.3 0
1.2 0.3 0
1.5 0.3 0
1.8 0.3 0
2.1 0.3 0
2.4 0.3 0
2.7 0.3 0
3 0.3 0
3.3 0.3 0
3.6 0.3 0
3.9 0.3 0
4.2 0.3 0
4.5 0.3 0
4.8 0.3 0
5.1 0.3 0
5.4 0.3 0
5.7 0.3 0
6 0.3 0
6.3 0.3 0
6.6 0.3 0
6.9 0.3 0
7.2 0.3 0
7.5 0.3 0
7.8 0.3 0
8.1 0.3 0
8.4 0.3 0
8.7 0.3 0
9 0.3 0
9.3 0.3 0
9.6 0.3 0
9.9 0.3 0
10.2 0.3 0
10.5 0.3 0
10.8 0.3 0
11.1 0.3 0
11.4 0.3 0
11.7 0.3 0
12 0.3 0
12.3 0.3 0
12.6 0.3 0
12.9 0.3 0
13.2 0.3 0
13.5 0.3 0
13.8 0.3 0
14.1 0.3 0
14.4 0.3 0
14.7 0.3 0
15 0.3 0
15.3 0.3 0
15.6 0.3 0
15.9 0.3 0
16.2 0.3 0
16.5 0.3 0
16.8 0.3 0
17.1 0.3 0
17.4 0.3 0
17.7 0.3 0
18 0.3 0
18.3 0.3 0
18.6 0.3 0
18.9 0.3 0
19.2 0.3 0
19.5 0.3 0
19.8 0.3 0
20.1 0.3 0
20.4 0.3 0
20.7 0.3 0
21 0.3 0
21.3 0.3 0
21.6 0.3 0
21.9 0.3 0
22.2 0.3 0
22.5 0.3 0
22.8 0.3 0
23.1 0.3 0
23.4 0.3 0
23.7 0.3 0
24 0.3 0
24.3 0.3 0
24.6 0.3 0
24.9 0.3 0
25.2 0.3 0
25.5 0.3 0
25.8 0.3 0
26.1 0.3 0
26.4 0.3 0
26.7 0.3 0
27 0.3 0
27.3 0.3 0
27.6 0.3 0
27.9 0.3 0
28.2 0.3 0
28.5 0.3 0
28.8 0.3 0
29.1 0.3 0
29.4 0.3 0
29.7 0.3 0
30 0.3 0
30.3 0.3 0
0 0.4 0
0.3 0.4 0
0.6 0.4 0
0.9 0.4 0
1.2 0.4 0
1.5 0.4 0
1.8 0.4 0
2.1 0.4 0
2.4 0.4 0
2.7 0.4 0
3 0.4 0
3.3 0.4 0
3.6 0.4 0
3.9 0.4 0
4.2 0.4 0
4.5 0.4 0
4.8 0.4 0
5.1 0.4 0
5.4 0.4 0
5.7 0.4 0
6 0.4 0
6.3 0.4 0
6.6 0.4 0
6.9 0.4 0
7.2 0.4 0
7.5 0.4 0
7.8 0.4 0
8.1 0.4 0
8.4 0.4 0
8.7 0.4 0
9 0.4 0
9.3 0.4 0
9.6 0.4 0
9.9 0.4 0
10.2 0.4 0
10.5 0.4 0
10.8 0.4 0
11.1 0.4 0
11.4 0.4 0
11.7 0.4 0
12 0.4 0
12.3 0.4 0
12.6 0.4 0
12.9 0.4 0
13.2 0.4 0
13.5 0.4 0
13.8 0.4 0
14.1 0.4 0
14.4 0.4 0
14.7 0.4 0
15 0.4 0
15.3 0.4 0
15.6 0.4 0
15.9 0.4 0
16.2 0.4 0
16.5 0.4 0
16.8 0.4 0
17.1 0.4 0
17.4 0.4 0
17.7 0.4 0
18 0.4 0
18.3 0.4 0
18.6 0.4 0
18.9 0.4 0
19.2 0.4 0
19.5 0.4 0
19.8 0.4 0
20.1 0.4 0
20.4 0.4 0
20.7 0.4 0
21 0.4 0
21.3 0.4 0
21.6 0.4 0
21.9 0.4 0
22.2 0.4 0
22.5 0.4 0
22.8 0.4 0
23.1 0.4 0
23.4 0.4 0
23.7 0.4 0
24 0.4 0
24.3 0.4 0
24.6 0.4 0
24.9 0.4 0
25.2 0.4 0
25.5 0.4 0
25.8 0.4 0
26.1 0.4 0
26.4 0.4 0
26.7 0.4 0
27 0.4 0
27.3 0.4 0
27.6 0.4 0
27.9 0.4 0
28.2 0.4 0
28.5 0.4 0
28.8 0.4 0
29.1 0.4 0
29.4 0.4 0
29.7 0.4 0
30 0.4 0
30.3 0.4 0
0 0.5 0
0.3 0.5 0
0.6 0.5 0
0.9 0.5 0
1.2 0.5 0
1.5 0.5 0
1.8 0.5 0
2.1 0.5 0
2.4 0.5 0
2.7 0.5 0
3 0.5 0
3.3 0.5 0
3.6 0.5 0
3.9 0.5 0
4.2 0.5 0
4.5 0.5 0
4.8 0.5 0
5.1 0.5 0
5.4 0.5 0
5.7 0.5 0
6 0.5 0
6.3 0.5 0
6.6 0.5 0
6.9 0.5 0
7.2 0.5 0
7.5 0.5 0
7.8 0.5 0
8.1 0.5 0
8.4 0.5 0
8.7 0.5 0
9 0.5 0
9.3 0.5 0
9.6 0.5 0
9.9 0.5 0
10.2 0.5 0
10.5 0.5 0
10.8 0.5 0
11.1 0.5 0
11.4 0.5 0
11.7 0.5 0
12 0.5 0
12.3 0.5 0
12.6 0.5 0
12.9 0.5 0
13.2 0.5 0
13.5 0.5 0
13.8 0.5 0
14.1 0.5 0
14.4 0.5 0
14.7 0.5 0
15 0.5 0
15.3 0.5 0
15.6 0.5 0
15.9 0.5 0
16.2 0.5 0
16.5 0.5 0
16.8 0.5 0
17.1 0.5 0
17.4 0.5 0
17.7 0.5 0
18 0.5 0
18.3 0.5 0
18.6 0.5 0
18.9 0.5 0
19.2 0.5 0
19.5 0.5 0
19.8 0.5 0
20.1 0.5 0
20.4 0.5 0
20.7 0.5 0
21 0.5 0
21.3 0.5 0
21.6 0.5 0
21.9 0.5 0
22.2 0.5 0
22.5 0.5 0
22.8 0.5 0
23.1 0.5 0
23.4 0.5 0
23.7 0.5 0
24 0.5 0
24.3 0.5 0
24.6 0.5 0
24.9 0.5 0
25.2 0.5 0
25.5 0.5 0
25.8 0.5 0
26.1 0.5 0
26.4 0.5 0
26.7 0.5 0
27 0.5 0
27.3 0.5 0
27.6 0.5 0
27.9 0.5 0
28.2 0.5 0
28.5 0.5 0
28.8 0.5 0
29.1 0.5 0
29.4 0.5 0
29.7 0.5 0
30 0.5 0
30.3 0.5 0
0 0.6 0
0.3 0.6 0
0.6 0.6 0
0.9 0.6 0
1.2 0.6 0
1.5 0.6 0
1.8 0.6 0
2.1 0.6 0
2.4 0.6 0
2.7 0.6 0
3 0.6 0
3.3 0.6 0
3.6 0.6 0
3.9 0.6 0
4.2 0.6 0
4.5 0.6 0
4.8 0.6 0
5.1 0.6 0
5.4 0.6 0
5.7 0.6 0
6 0.6 0
6.3 0.6 0
6.6 0.6 0
6.9 0.6 0
7.2 0.6 0
7.5 0.6 0
7.8 0.6 0
8.1 0.6 0
8.4 0.6 0
8.7 0.6 0
9 0.6 0
9.3 0.6 0
9.6 0.6 0
9.9 0.6 0
10.2 0.6 0
10.5 0.6 0
10.8 0.6 0
11.1 0.6 0
11.4 0.6 0
11.7 0.6 0
12 0.6 0
12.3 0.6 0
12.6 0.6 0
12.9 0.6 0
13.2 0.6 0
13.5 0.6 0
13.8 0.6 0
14.1 0.6 0
14.4 0.6 0
14.7 0.6 0
15 0.6 0
15.3 0.6 0
15.6 0.6 0
15.9 0.6 0
16.2 0.6 0
16.5 0.6 0
16.8 0.6 0
17.1 0.6 0
17.4 0.6 0
17.7 0.6 0
18 0.6 0
18.3 0.6 0
18.6 0.6 0
18.9 0.6 0
19.2 0.6 0
19.5 0.6 0
19.8 0.6 0
20.1 0.6 0
20.4 0.6 0
20.7 0.6 0
21 0.6 0
21.3 0.6 0
21.6 0.6 0
21.9 0.6 0
22.2 0.6 0
22.5 0.6 0
22.8 0.6 0
23.1 0.6 0
23.4 0.6 0
23.7 0.6 0
24 0.6 0
24.3 0.6 0
24.6 0.6 0
24.9 0.6 0
25.2 0.6 0
25.5 0.6 0
25.8 0.6 0
26.1 0.6 0
26.4 0.6 0
26.7 0.6 0
27 0.6 0
27.3 0.6 0
27.6 0.6 0
27.9 0.6 0
28.2 0.6 0
28.5 0.6 0
28.8 0.6 0
29.1 0.6 0
29.4 0.6 0
29.7 0.6 0
30 0.6 0
30.3 0.6 0
0 0.7 0
0.3 0.7 0
0.6 0.7 0
0.9 0.7 0
1.2 0.7 0
1.5 0.7 0
1.8 0.7 0
2.1 0.7 0
2.4 0.7 0
2.7 0.7 0
3 0.7 0
3.3 0.7 0
3.6 0.7 0
3.9 0.7 0
4.2 0.7 0
4.5 0.7 0
4.8 0.7 0
5.1 0.7 0
5.4 0.7 0
5.7 0.7 0
6 0.7 0
6.3 0.7 0
6.6 0.7 0
6.9 0.7 0
7.2 0.7 0
7.5 0.7 0
7.8 0.7 0
8.1 0.7 0
8.4 0.7 0
8.7 0.7 0
9 0.7 0
9.3 0.7 0
9.6 0.7 0
9.9 0.7 0
10.2 0.7 0
10.5 0.7 0
10.8 0.7 0
11.1 0.7 0
11.4 0.7 0
11.7 0.7 0
12 0.7 0
12.3 0.7 0
12.6 0.7 0
12.9 0.7 0
13.2 0.7 0
13.5 0.7 0
13.8 0.7 0
14.1 0.7 0
14.4 0.7 0
14.7 0.7 0
15 0.7 0
15.3 0.7 0
15.6 0.7 0
15.9 0.7 0
16.2 0.7 0
16.5 0.7 0
16.8 0.7 0
17.1 0.7 0
17.4 0.7 0
17.7 0.7 0
18 0.7 0
18.3 0.7 0
18.6 0.7 0
18.9 0.7 0
19.2 0.7 0
19.5 0.7 0
19.8 0.7 0
20.1 0.7 0
20.4 0.7 0
20.7 0.7 0
21 0.7 0
21.3 0.7 0
21.6 0.7 0
21.9 0.7 0
22.2 0.7 0
22.5 0.7 0
22.8 0.7 0
23.1 0.7 0
23.4 0.7 0
23.7 0.7 0
24 0.7 0
24.3 0.7 0
24.6 0.7 0
24.9 0.7 0
25.2 0.7 0
25.5 0.7 0
25.8 0.7 0
26.1 0.7 0
26.4 0.7 0
26.7 0.7 0
27 0.7 0
27.3 0.7 0
27.6 0.7 0
27.9 0.7 0
28.2 0.7 0
28.5 0.7 0
28.8 0.7 0
29.1 0.7 0
29.4 0.7 0
29.7 0.7 0
30 0.7 0
30.3 0.7 0
0 0.8 0
0.3 0.8 0
0.6 0.8 0
0.9 0.8 0
1.2 0.8 0
1.5 0.8 0
1.8 0.8 0
2.1 0.8 0
2.4 0.8 0
2.7 0.8 0
3 0.8 0
3.3 0.8 0
3.6 0.8 0
3.9 0.8 0
4.2 0.8 0
4.5 0.8 0
4.8 0.8 0
5.1 0.8 0
5.4 0.8 0
5.7 0.8 0
6 0.8 0
6.3 0.8 0
6.6 0.8 0
6.9 0.8 0
7.2 0.8 0
7.5 0.8 0
7.8 0.8 0
8.1 0.8 0
8.4 0.8 0
8.7 0.8 0
9 0.8 0
9.3 0.8 0
9.6 0.8 0
9.9 0.8 0
10.2 0.8 0
10.5 0.8 0
10.8 0.8 0
11.1 0.8 0
11.4 0.8 0
11.7 0.8 0
12 0.8 0
12.3 0.8 0
12.6 0.8 0
12.9 0.8 0
13.2 0.8 0
13.5 0.8 0
13.8 0.8 0
14.1 0.8 0
14.4 0.8 0
14.7 0.8 0
15 0.8 0
15.3 0.8 0
15.6 0.8 0
15.9 0.8 0
16.2 0.8 0
16.5 0.8 0
16.8 0.8 0
17.1 0.8 0
17.4 0.8 0
17.7 0.8 0
18 0.8 0
18.3 0.8 0
18.6 0.8 0
18.9 0.8 0
19.2 0.8 0
19.5 0.8 0
19.8 0.8 0
20.1 0.8 0
20.4 0.8 0
20.7 0.8 0
21 0.8 0
21.3 0.8 0
21.6 0.8 0
21.9 0.8 0
22.2 0.8 0
22.5 0.8 0
22.8 0.8 0
23.1 0.8 0
23.4 0.8 0
23.7 0.8 0
24 0.8 0
24.3 0.8 0
24.6 0.8 0
24.9 0.8 0
25.2 0.8 0
25.5 0.8 0
25.8 0.8 0
26.1 0.8 0
26.4 0.8 0
26.7 0.8 0
27 0.8 0
27.3 0.8 0
27.6 0.8 0
27.9 0.8 0
28.2 0.8 0
28.5 0.8 0
28.8 0.8 0
29.1 0.8 0
29.4 0.8 0
29.7 0.8 0
30 0.8 0
30.3 0.8 0
0 0.9 0
0.3 0.9 0
0.6 0.9 0
0.9 0.9 0
1.2 0.9 0
1.5 0.9 0
1.8 0.9 0
2.1 0.9 0
2.4 0.9 0
2.7 0.9 0
3 0.9 0
3.3 0.9 0
3.6 0.9 0
3.9 0.9 0
4.2 0.9 0
4.5 0.9 0
4.8 0.9 0
5.1 0.9 0
5.4 0.9 0
5.7 0.9 0
6 0.9 0
6.3 0.9 0
6.6 0.9 0
6.9 0.9 0
7.2 0.9 0
7.5 0.9 0
7.8 0.9 0
8.1 0.9 0
8.4 0.9 0
8.7 0.9 0
9 0.9 0
9.3 0.9 0
9.6 0.9 0
9.9 0.9 0
10.2 0.9 0
10.5 0.9 0
10.8 0.9 0
11.1 0.9 0
11.4 0.9 0
11.7 0.9 0
12 0.9 0
12.3 0.9 0
12.6 0.9 0
12.9 0.9 0
13.2 0.9 0
13.5 0.9 0
13.8 0.9 0
14.1 0.9 0
14.4 0.9 0
14.7 0.9 0
15 0.9 0
15.3 0.9 0
15.6 0.9 0
15.9 0.9 0
16.2 0.9 0
16.5 0.9 0
16.8 0.9 0
17.1 0.9 0
17.4 0.9 0
17.7 0.9 0
18 0.9 0
18.3 0.9 0
18.6 0.9 0
18.9 0.9 0
19.2 0.9 0
19.5 0.9 0
19.8 0.9 0
20.1 0.9 0
20.4 0.9 0
20.7 0.9 0
21 0.9 0
21.3 0.9 0
21.6 0.9 0
21.9 0.9 0
22.2 0.9 0
22.5 0.9 0
22.8 0.9 0
23.1 0.9 0
23.4 0.9 0
23.7 0.9 0
24 0.9 0
24.3 0.9 0
24.6 0.9 0
24.9 0.9 0
25.2 0.9 0
25.5 0.9 0
25.8 0.9 0
26.1 0.9 0
26.4 0.9 0
26.7 0.9 0
27 0.9 0
27.3 0.9 0
27.6 0.9 0
27.9 0.9 0
28.2 0.9 0
28.5 0.9 0
28.8 0.9 0
29.1 0.9 0
29.4 0.9 0
29.7 0.9 0
30 0.9 0
30.3 0.9 0
0 1 0
0.3 1 0
0.6 1 0
0.9 1 0
1.2 1 0
1.5 1 0
1.8 1 0
2.1 1 0
2.4 1 0
2.7 1 0
3 1 0
3.3 1 0
3.6 1 0
3.9 1 0
4.2 1 0
4.5 1 0
4.8 1 0
5.1 1 0
5.4 1 0
5.7 1 0
6 1 0
6.3 1 0
6.6 1 0
6.9 1 0
7.2 1 0
7.5 1 0
7.8 1 0
8.1 1 0
8.4 1 0
8.7 1 0
9 1 0
9.3 1 0
9.6 1 0
9.9 1 0
10.2 1 0
10.5 1 0
10.8 1 0
11.1 1 0
11.4 1 0
11.7 1 0
12 1 0
12.3 1 0
12.6 1 0
12.9 1 0
13.2 1 0
13.5 1 0
13.8 1 0
14.1 1 0
14.4 1 0
14.7 1 0
15 1 0
15.3 1 0
15.6 1 0
15.9 1 0
16.2 1 0
16.5 1 0
16.8 1 0
17.1 1 0
17.4 1 0
17.7 1 0
18 1 0
18.3 1 0
18.6 1 0
18.9 1 0
19.2 1 0
19.5 1 0
19.8 1 0
20.1 1 0
20.4 1 0
20.7 1 0
21 1 0
21.3 1 0
21.6 1 0
21.9 1 0
22.2 1 0
22.5 1 0
22.8 1 0
23.1 1 0
23.4 1 0
23.7 1 0
24 1 0
24.3 1 0
24.6 1 0
24.9 1 0
25.2 1 0
25.5 1 0
25.8 1 0
26.1 1 0
26.4 1 0
26.7 1 0
27 1 0
27.3 1 0
27.6 1 0
27.9 1 0
28.2 1 0
28.5 1 0
28.8 1 0
29.1 1 0
29.4 1 0
29.7 1 0
30 1 0
30.3 1 0
0 1.1 0
0.3 1.1 0
0.6 1.1 0
0.9 1.1 0
1.2 1.1 0
1.5 1.1 0
1.8 1.1 0
2.1 1.1 0
2.4 1.1 0
2.7 1.1 0
3 1.1 0
3.3 1.1 0
3.6 1.1 0
3.9 1.1 0
4.2 1.1 0
4.5 1.1 0
4.8 1.1 0
5.1 1.1 0
5.4 1.1 0
5.7 1.1 0
6 1.1 0
6.3 1.1 0
6.6 1.1 0
6.9 1.1 0
7.2 1.1 0
7.5 1.1 0
7.8 1.1 0
8.1 1.1 0
8.4 1.1 0
8.7 1.1 0
9 1.1 0
9.3 1.1 0
9.6 1.1 0
9.9 1.1 0
10.2 1.1 0
10.5 1.1 0
10.8 1.1 0
11.1 1.1 0
11.4 1.1 0
11.7 1.1 0
12 1.1 0
12.3 1.1 0
12.6 1.1 0
12.9 1.1 0
13.2 1.1 0
13.5 1.1 0
13.8 1.1 0
14.1 1.1 0
14.4 1.1 0
14.7 1.1 0
15 1.1 0
15.3 1.1 0
15.6 1.1 0
15.9 1.1 0
16.2 1.1 0
16.5 1.1 0
16.8 1.1 0
17.1 1.1 0
17.4 1.1 0
17.7 1.1 0
18 1.1 0
18.3 1.1 0
18.6 1.1 0
18.9 1.1 0
19.2 1.1 0
19.5 1.1 0
19.8 1.1 0
20.1 1.1 0
20.4 1.1 0
20.7 1.1 0
21 1.1 0
21.3 1.1 0
21.6 1.1 0
21.9 1.1 0
22.2 1.1 0
22.5 1.1 0
22.8 1.1 0
23.1 1.1 0
23.4 1.1 0
23.7 1.1 0
24 1.1 0
24.3 1.1 0
24.6 1.1 0
24.9 1.1 0
25.2 1.1 0
25.5 1.1 0
25.8 1.1 0
26.1 1.1 0
26.4 1.1 0
26.7 1.1 0
27 1.1 0
27.3 1.1 0
27.6 1.1 0
27.9 1.1 0
28.2 1.1 0
28.5 1.1 0
28.8 1.1 0
29.1 1.1 0
29.4 1.1 0
29.7 1.1 0
30 1.1 0
30.3 1.1 0
0 1.2 0
0.3 1.2 0
0.6 1.2 0
0.9 1.2 0
1.2 1.2 0
1.5 1.2 0
1.8 1.2 0
2.1 1.2 0
2.4 1.2 0
2.7 1.2 0
3 1.2 0
3.3 1.2 0
3.6 1.2 0
3.9 1.2 0
4.2 1.2 0
4.5 1.2 0
4.8 1.2 0
5.1 1.2 0
5.4 1.2 0
5.7 1.2 0
6 1.2 0
6.3 1.2 0
6.6 1.2 0
6.9 1.2 0
7.2 1.2 0
7.5 1.2 0
7.8 1.2 0
8.1 1.2 0
8.4 1.2 0
8.7 1.2 0
9 1.2 0
9.3 1.2 0
9.6 1.2 0
9.9 1.2 0
10.2 1.2 0
10.5 1.2 0
10.8 1.2 0
11.1 1.2 0
11.4 1.2 0
11.7 1.2 0
12 1.2 0
12.3 1.2 0
12.6 1.2 0
12.9 1.2 0
13.2 1.2 0
13.5 1.2 0
13.8 1.2 0
14.1 1.2 0
14.4 1.2 0
14.7 1.2 0
15 1.2 0
15.3 1.2 0
15.6 1.2 0
15.9 1.2 0
16.2 1.2 0
16.5 1.2 0
16.8 1.2 0
17.1 1.2 0
17.4 1.2 0
17.7 1.2 0
18 1.2 0
18.3 1.2 0
18.6 1.2 0
18.9 1.2 0
19.2 1.2 0
19.5 1.2 0
19.8 1.2 0
20.1 1.2 0
20.4 1.2 0
20.7 1.2 0
21 1.2 0
21.3 1.2 0
21.6 1.2 0
21.9 1.2 0
22.2 1.2 0
22.5 1.2 0
22.8 1.2 0
23.1 1.2 0
23.4 1.2 0
23.7 1.2 0
24 1.2 0
24.3 1.2 0
24.6 1.2 0
24.9 1.2 0
25.2 1.2 0
25.5 1.2 0
25.8 1.2 0
26.1 1.2 0
26.4 1.2 0
26.7 1.2 0
27 1.2 0
27.3 1.2 0
27.6 1.2 0
27.9 1.2 0
28.2 1.2 0
28.5 1.2 0
28.8 1.2 0
29.1 1.2 0
29.4 1.2 0
29.7 1.2 0
30 1.2 0
30.3 1.2 0

POINT_DATA 1326

SCALARS phi double
LOOKUP_TABLE default
1
1
1
1
0.999998
0.999989
0.999998
0.999962
0.999788
0.999834
1.00052
1.00063
0.996424
0.983103
0.957372
0.918888
0.869857
0.81364
0.753496
0.691958
0.630758
0.571001
0.513378
0.458324
0.406118
0.356942
0.310928
0.268179
0.228789
0.192843
0.160412
0.131537
0.106212
0.0843701
0.0658724
0.0505107
0.0380136
0.0280629
0.0203129
0.0144115
0.0100193
0.00682462
0.00455401
0.00297693
0.00190637
0.00119603
0.000735217
0.000442878
0.000261468
0.000151319
8.58615e-05
4.77773e-05
2.6077e-05
1.39638e-05
7.33774e-06
3.78471e-06
1.91654e-06
9.53059e-07
4.65522e-07
2.23399e-07
1.05352e-07
4.8834e-08
2.22547e-08
9.97317e-09
4.39597e-09
1.90624e-09
8.1338e-10
3.4158e-10
1.41209e-10
5.74762e-11
2.30385e-11
9.09588e-12
3.53784e-12
1.35585e-12
5.12092e-13
1.90641e-13
6.99671e-14
2.53193e-14
9.03563e-15
3.18042e-15
1.10433e-15
3.78323e-16
1.27892e-16
4.2668e-17
1.40508e-17
4.56775e-18
1.46609e-18
4.64662e-19
1.4544e-19
4.49636e-20
1.37315e-20
4.14294e-21
1.23505e-21
3.63828e-22
1.05924e-22
3.04808e-23
8.67038e-24
2.43836e-24
6.7798e-25
1.8668e-25
4.79624e-26
4.79624e-26
1
1
1
1
0.999998
0.999989
0.999998
0.999962
0.999788
0.999834
1.00052
1.00063
0.996424
0.983103
0.957372
0.918888
0.869857
0.81364
0.753496
0.691958
0.630758
0.571001
0.513378
0.458324
0.406118
0.356942
0.310928
0.268179
0.228789
0.192843
0.160412
0.131537
0.106212
0.0843701
0.0658724
0.0505107
0.0380136
0.0280629
0.0203129
0.0144115
0.0100193
0.00682462
0.00455401
0.00297693
0.00190637
0.00119603
0.000735217
0.000442878
0.000261468
0.000151319
8.58615e-05
4.77773e-05
2.6077e-05
1.39638e-05
7.33774e-06
3.78471e-06
1.91654e-06
9.53059e-07
4.65522e-07
2.23399e-07
1.05352e-07
4.8834e-08
2.22547e-08
9.97317e-09
4.39597e-09
1.90624e-09
8.1338e-10
3.4158e-10
1.41209e-10
5.74762e-11
2.30385e-11
9.09588e-12
3.53784e-12
1.35585e-12
5.12092e-13
1.90641e-13
6.99671e-14
2.53193e-14
9.03563e-15
3.18042e-15
1.10433e-15
3.78323e-16
1.27892e-16
4.2668e-17
1.40508e-17
4.56775e-18
1.46609e-18
4.64662e-19
1.4544e-19
4.49636e-20
1.37315e-20
4.14294e-21
1.23505e-21
3.63828e-22
1.05924e-22
3.04808e-23
8.67038e-24
2.43836e-24
6.7798e-25
1.8668e-25
4.79624e-26
4.79624e-26
1
1
1
0.999996
0.999983
0.999952
0.999899
0.999812
0.999641
0.999402
0.999238
0.999137
0.998476
0.995847
0.989401
0.977464
0.959029
0.933906
0.902591
0.866015
0.82531
0.781619
0.735981
0.689253
0.642075
0.594861
0.547838
0.501105
0.454712
0.408743
0.363386
0.318973
0.275978
0.234983
0.19661
0.16145
0.129977
0.102498
0.0791204
0.0597543
0.044137
0.0318782
0.022511
0.0155416
0.0104912
0.00692514
0.00447077
0.00282342
0.00174465
0.0010551
0.000624666
0.000362156
0.000205667
0.000114441
6.24131e-05
3.33716e-05
1.74991e-05
9.00149e-06
4.54363e-06
2.25114e-06
1.09505e-06
5.23141e-07
2.4551e-07
1.13214e-07
5.13129e-08
2.28639e-08
1.0018e-08
4.31738e-09
1.8305e-09
7.63701e-10
3.13603e-10
1.26774e-10
5.04622e-11
1.97822e-11
7.63909e-12
2.90637e-12
1.08964e-12
4.0264e-13
1.46667e-13
5.26745e-14
1.86551e-14
6.51621e-15
2.24523e-15
7.63249e-16
2.5602e-16
8.47524e-17
2.76924e-17
8.93232e-18
2.8446e-18
8.94522e-19
2.77799e-19
8.52114e-20
2.58194e-20
7.7291e-21
2.28612e-21
6.68205e-22
1.93022e-22
5.51136e-23
1.55551e-23
4.34771e-24
1.13018e-24
1.13018e-24
0.999997
1
0.99998
0.999896
0.999724
0.999433
0.998998
0.998399
0.997613
0.996627
0.995458
0.994141
0.992648
0.990791
0.988174
0.984239
0.978369
0.970001
0.95871
0.944251
0.926565
0.905763
0.882086
0.855856
0.827405
0.797003
0.764779
0.730679
0.694457
0.655729
0.614085
0.569239
0.521181
0.470292
0.417385
0.363654
0.31055
0.259595
0.212197
0.169484
0.1322
0.100671
0.0748289
0.0542888
0.0384464
0.0265809
0.017945
0.0118329
0.00762328
0.00479991
0.00295469
0.00177882
0.00104772
0.00060396
0.000340859
0.000188409
0.000102032
5.41538e-05
2.81791e-05
1.43805e-05
7.19958e-06
3.53723e-06
1.70599e-06
8.07926e-07
3.75817e-07
1.71756e-07
7.71429e-08
3.40599e-08
1.47865e-08
6.3135e-09
2.65193e-09
1.09608e-09
4.45876e-10
1.78553e-10
7.04045e-11
2.73402e-11
1.04582e-11
3.94147e-12
1.46381e-12
5.35816e-13
1.93345e-13
6.87881e-14
2.41341e-14
8.35136e-15
2.85078e-15
9.6011e-16
3.19076e-16
1.04653e-16
3.38807e-17
1.08284e-17
3.41698e-18
1.06476e-18
3.27676e-19
9.96053e-20
2.99101e-20
8.87374e-21
2.60135e-21
7.53626e-22
2.15772e-22
6.11682e-23
1.60967e-23
1.60967e-23
0.999999
1
0.99943
0.998224
0.996402
0.994008
0.991093
0.987716
0.98394
0.979827
0.975443
0.970854
0.966116
0.961262
0.956273
0.951072
0.945521
0.939436
0.932604
0.924811
0.915858
0.905585
0.893881
0.880697
0.866036
0.849921
0.832344
0.813181
0.792118
0.768593
0.741808
0.71082
0.674723
0.632875
0.585121
0.531951
0.474532
0.414607
0.354277
0.295729
0.240954
0.191524
0.148464
0.112219
0.082711
0.0594512
0.041682
0.0285131
0.0190364
0.0124085
0.00789972
0.00491393
0.00298774
0.00177632
0.0010331
0.000587989
0.000327622
0.00017878
9.55792e-05
5.00803e-05
2.57265e-05
1.29614e-05
6.4066e-06
3.10775e-06
1.47993e-06
6.92068e-07
3.17902e-07
1.43482e-07
6.36479e-08
2.77566e-08
1.19031e-08
5.02075e-09
2.08354e-09
8.5087e-10
3.42018e-10
1.3535e-10
5.27452e-11
2.02448e-11
7.6549e-12
2.85198e-12
1.04717e-12
3.78993e-13
1.35229e-13
4.75781e-14
1.65089e-14
5.65039e-15
1.90789e-15
6.35647e-16
2.08992e-16
6.78207e-17
2.17258e-17
6.87119e-18
2.14582e-18
6.61782e-19
2.01585e-19
6.06563e-20
1.80312e-20
5.29616e-21
1.53714e-21
4.41632e-22
1.17634e-22
1.17634e-22
1.00149
0.998508
0.989831
0.978334
0.965614
0.952521
0.939508
0.926817
0.914586
0.90289
0.891766
0.881225
0.871262
0.861856
0.852978
0.84458
0.836602
0.828965
0.821577
0.814326
0.80709
0.799741
0.792154
0.784223
0.77587
0.767048
0.757713
0.747775
0.737009
0.72496
0.710873
0.693695
0.672172
0.645052
0.611361
0.570667
0.523278
0.4703
0.41353
0.355224
0.297781
0.243431
0.193973
0.150625
0.113978
0.0840544
0.0604223
0.0423499
0.0289514
0.0193113
0.0125732
0.00799388
0.00496507
0.00301393
0.00178881
0.00103848
0.000589953
0.000328089
0.000178686
9.53419e-05
4.98573e-05
2.55612e-05
1.28527e-05
6.34039e-06
3.06962e-06
1.45895e-06
6.80949e-07
3.12203e-07
1.40647e-07
6.22759e-08
2.71092e-08
1.16048e-08
4.88641e-09
2.02432e-09
8.25299e-10
3.31194e-10
1.30855e-10
5.0913e-11
1.95114e-11
7.36641e-12
2.74043e-12
1.00475e-12
3.63128e-13
1.29389e-13
4.54617e-14
1.57537e-14
5.38493e-15
1.81596e-15
6.04271e-16
1.98437e-16
6.43194e-17
2.05805e-17
6.50164e-18
2.02817e-18
6.24829e-19
1.90129e-19
5.71506e-20
1.69721e-20
4.97994e-21
1.44632e-21
3.89112e-22
3.89112e-22
1.04825
0.951752
0.875703
0.818254
0.774815
0.7415
0.715492
0.694815
0.67809
0.664344
0.652885
0.64321
0.634947
0.627819
0.621612
0.61616
0.611332
0.607018
0.603127
0.599575
0.596283
0.593174
0.590178
0.587233
0.584298
0.581358
0.57841
0.575424
0.572275
0.568647
0.563946
0.557259
0.547397
0.53305
0.513018
0.486491
0.453274
0.413921
0.36971
0.322483
0.27438
0.22754
0.18383
0.144653
0.11086
0.0827591
0.0601922
0.0426661
0.0294849
0.0198731
0.0130696
0.00839038
0.00526037
0.00322225
0.00192932
0.00112964
0.000647068
0.000362759
0.000199122
0.00010706
5.64036e-05
2.91286e-05
1.4751e-05
7.32759e-06
3.57181e-06
1.709e-06
8.02894e-07
3.70484e-07
1.67959e-07
7.48314e-08
3.27739e-08
1.41141e-08
5.97817e-09
2.49106e-09
1.02142e-09
4.12219e-10
1.63778e-10
6.40742e-11
2.46888e-11
9.37125e-12
3.50479e-12
1.29175e-12
4.69274e-13
1.68069e-13
5.93525e-14
2.06707e-14
7.10084e-15
2.40643e-15
8.04665e-16
2.65523e-16
8.64772e-17
2.7802e-17
8.82445e-18
2.76565e-18
8.55984e-19
2.61667e-19
7.90138e-20
2.35713e-20
6.94746e-21
2.02681e-21
5.47571e-22
5.47571e-22
-0.0446953
0.0446953
0.107508
0.152458
0.185771
0.211397
0.231803
0.248527
0.262547
0.274503
0.284836
0.293866
0.301832
0.308922
0.315285
0.321041
0.326285
0.331097
0.33554
0.339669
0.343525
0.347146
0.350566
0.353822
0.356961
0.360043
0.363125
0.366235
0.369305
0.372096
0.374127
0.374644
0.372659
0.367078
0.356894
0.34141
0.320426
0.294337
0.264114
0.231176
0.197179
0.163782
0.132437
0.104242
0.0798708
0.0595849
0.0432926
0.0306462
0.0211447
0.014226
0.00933715
0.00598137
0.00374149
0.00228638
0.00136556
0.000797494
0.000455605
0.00025473
0.000139438
7.47596e-05
3.92742e-05
2.02239e-05
1.02117e-05
5.05775e-06
2.45806e-06
1.17259e-06
5.49231e-07
2.52669e-07
1.14199e-07
5.07243e-08
2.21477e-08
9.50861e-09
4.01507e-09
1.66788e-09
6.81771e-10
2.74293e-10
1.0864e-10
4.23706e-11
1.62753e-11
6.15842e-12
2.29602e-12
8.43593e-13
3.05508e-13
1.09074e-13
3.83984e-14
1.33312e-14
4.5652e-15
1.54227e-15
5.1409e-16
1.69108e-16
5.49034e-17
1.75958e-17
5.56746e-18
1.73942e-18
5.36669e-19
1.63541e-19
4.92284e-20
1.46397e-20
4.30141e-21
1.25092e-21
3.36964e-22
3.36964e-22
-0.00141662
0.00141662
0.00819779
0.0166628
0.0258774
0.0354227
0.0450904
0.0547524
0.0643114
0.0736888
0.0828236
0.0916735
0.100213
0.108431
0.116328
0.123909
0.131188
0.138178
0.144898
0.151366
0.157603
0.163633
0.169488
0.175208
0.180848
0.186468
0.192114
0.197782
0.20337
0.208618
0.213078
0.21612
0.216996
0.214957
0.209402
0.200018
0.186874
0.170442
0.151539
0.131208
0.110565
0.0906471
0.0722992
0.0561044
0.0423683
0.0311463
0.0222977
0.0155521
0.010573
0.00700955
0.00453397
0.00286269
0.00176517
0.00106346
0.000626296
0.000360711
0.00020326
0.00011211
6.05499e-05
3.20357e-05
1.66102e-05
8.44304e-06
4.20882e-06
2.05832e-06
9.87869e-07
4.65439e-07
2.15347e-07
9.78722e-08
4.37069e-08
1.91838e-08
8.27807e-09
3.51277e-09
1.46625e-09
6.02157e-10
2.43366e-10
9.6818e-11
3.79227e-11
1.46279e-11
5.55768e-12
2.0803e-12
7.67298e-13
2.78927e-13
9.99512e-14
3.5313e-14
1.23029e-14
4.22744e-15
1.43292e-15
4.79191e-16
1.58127e-16
5.14971e-17
1.6554e-17
5.25324e-18
1.64597e-18
5.09264e-19
1.55615e-19
4.69683e-20
1.40042e-20
4.12542e-21
1.20078e-21
3.4597e-22
9.23975e-23
9.23975e-23
-1.11745e-05
1.11745e-05
0.000427351
0.00124909
0.0024865
0.00414883
0.00623842
0.00874492
0.0116437
0.0148985
0.0184667
0.0223034
0.0263657
0.0306144
0.0350148
0.0395366
0.0441534
0.0488423
0.0535826
0.0583562
0.0631491
0.0679534
0.0727701
0.0776091
0.0824834
0.0873946
0.0923092
0.0971281
0.10166
0.105608
0.108588
0.110166
0.109938
0.107604
0.10304
0.0963407
0.0878165
0.0779529
0.0673396
0.0565875
0.0462507
0.0367691
0.0284377
0.0214033
0.0156819
0.0111901
0.00778003
0.00527286
0.00348529
0.00224788
0.00141534
0.000870377
0.000523024
0.000307257
0.00017654
9.92515e-05
5.46217e-05
2.94379e-05
1.55429e-05
8.04286e-06
4.08037e-06
2.03028e-06
9.91123e-07
4.74855e-07
2.23354e-07
1.03172e-07
4.68164e-08
2.08748e-08
9.14872e-09
3.9421e-09
1.67047e-09
6.96312e-10
2.8558e-10
1.1527e-10
4.57998e-11
1.79173e-11
6.90291e-12
2.61961e-12
9.79426e-13
3.60848e-13
1.31032e-13
4.69041e-14
1.6554e-14
5.76143e-15
1.97773e-15
6.69708e-16
2.23746e-16
7.37639e-17
2.40004e-17
7.70806e-18
2.44391e-18
7.65067e-19
2.3651e-19
7.22093e-20
2.17765e-20
6.48767e-21
1.90963e-21
5.55433e-22
1.59645e-22
4.543e-23
1.19979e-23
1.19979e-23
1.77952e-06
-1.77952e-06
1.46453e-05
7.0561e-05
0.000191297
0.000407208
0.000751294
0.00125576
0.0019487
0.00285191
0.00398015
0.00534168
0.00693934
0.00877163
0.0108331
0.0131143
0.0156004
0.0182711
0.0211003
0.0240576
0.0271104
0.0302253
0.0333672
0.0364944
0.0395506
0.0424552
0.0450957
0.047327
0.0489802
0.0498818
0.0498803
0.0488758
0.0468437
0.0438478
0.0400377
0.0356315
0.0308873
0.0260706
0.0214228
0.0171377
0.0133484
0.0101252
0.00748166
0.00538718
0.00378145
0.0025886
0.00172888
0.00112706
0.000717465
0.000446184
0.000271192
0.000161166
9.36883e-05
5.32956e-05
2.968e-05
1.61873e-05
8.64936e-06
4.52954e-06
2.32562e-06
1.17108e-06
5.78558e-07
2.80515e-07
1.33522e-07
6.24118e-08
2.86568e-08
1.29288e-08
5.73292e-09
2.49919e-09
1.07137e-09
4.51758e-10
1.87415e-10
7.65129e-11
3.07466e-11
1.21644e-11
4.73917e-12
1.81856e-12
6.87468e-13
2.56072e-13
9.40029e-14
3.40149e-14
1.21345e-14
4.26855e-15
1.48087e-15
5.06758e-16
1.71082e-16
5.699e-17
1.87347e-17
6.07875e-18
1.947e-18
6.15688e-19
1.92248e-19
5.92825e-20
1.80556e-20
5.43219e-21
1.61462e-21
4.74187e-22
1.37615e-22
3.94718e-23
1.11898e-23
3.14119e-24
8.19869e-25
8.19869e-25
1.29321e-07
-1.29321e-07
2.38925e-07
4.46729e-06
2.01125e-05
6.11036e-05
0.000148701
0.000310436
0.000577125
0.000979184
0.00154393
0.00229446
0.0032491
0.00441993
0.00581025
0.00741178
0.00920284
0.0111479
0.0131987
0.0152958
0.0173708
0.0193487
0.0211501
0.0226942
0.0239026
0.024705
0.0250454
0.0248888
0.0242276
0.023085
0.021516
0.0196029
0.0174488
0.0151668
0.0128693
0.0106571
0.00861148
0.00678966
0.00522343
0.00392139
0.00287319
0.00205499
0.00143509
0.000978785
0.000652166
0.000424644
0.000270288
0.000168231
0.000102426
6.10219e-05
3.55859e-05
2.03205e-05
1.13659e-05
6.22907e-06
3.3461e-06
1.76234e-06
9.10353e-07
4.61354e-07
2.29452e-07
1.12024e-07
5.37053e-08
2.52888e-08
1.16994e-08
5.31909e-09
2.37718e-09
1.04459e-09
4.51433e-10
1.91915e-10
8.02773e-11
3.30477e-11
1.33921e-11
5.34327e-12
2.09946e-12
8.12525e-13
3.09798e-13
1.1639e-13
4.30954e-14
1.5729e-14
5.6598e-15
2.0082e-15
7.02733e-16
2.42562e-16
8.25985e-17
2.77528e-17
9.20218e-18
3.01154e-18
9.7289e-19
3.10295e-19
9.772e-20
3.03911e-20
9.33513e-21
2.83244e-21
8.49029e-22
2.51454e-22
7.35899e-23
2.12842e-23
6.08441e-24
1.7194e-24
4.80329e-25
1.32869e-25
3.42845e-26
3.42845e-26
1.29321e-07
-1.29321e-07
2.38925e-07
4.46729e-06
2.01125e-05
6.11036e-05
0.000148701
0.000310436
0.000577125
0.000979184
0.00154393
0.00229446
0.0032491
0.00441993
0.00581025
0.00741178
0.00920284
0.0111479
0.0131987
0.0152958
0.0173708
0.0193487
0.0211501
0.0226942
0.0239026
0.024705
0.0250454
0.0248888
0.0242276
0.023085
0.021516
0.0196029
0.0174488
0.0151668
0.0128693
0.0106571
0.00861148
0.00678966
0.00522343
0.00392139
0.00287319
0.00205499
0.00143509
0.000978785
0.000652166
0.000424644
0.000270288
0.000168231
0.000102426
6.10219e-05
3.55859e-05
2.03205e-05
1.13659e-05
6.22907e-06
3.3461e-06
1.76234e-06
9.10353e-07
4.61354e-07
2.29452e-07
1.12024e-07
5.37053e-08
2.52888e-08
1.16994e-08
5.31909e-09
2.37718e-09
1.04459e-09
4.51433e-10
1.91915e-10
8.02773e-11
3.30477e-11
1.33921e-11
5.34327e-12
2.09946e-12
8.12525e-13
3.09798e-13
1.1639e-13
4.30954e-14
1.5729e-14
5.6598e-15
2.0082e-15
7.02733e-16
2.42562e-16
8.25985e-17
2.77528e-17
9.20218e-18
3.01154e-18
9.7289e-19
3.10295e-19
9.772e-20
3.03911e-20
9.33513e-21
2.83244e-21
8.49029e-22
2.51454e-22
7.35899e-23
2.12842e-23
6.08441e-24
1.7194e-24
4.80329e-25
1.32869e-25
3.42845e-26
3.42845e-26
