# vtk DataFile Version 2.0
FlowField
ASCII
DATASET STRUCTURED_GRID
DIMENSIONS 102 1 12 
POINTS 1224 double
0 0 0
0.4 0 0
0.8 0 0
1.2 0 0
1.6 0 0
2 0 0
2.4 0 0
2.8 0 0
3.2 0 0
3.6 0 0
4 0 0
4.4 0 0
4.8 0 0
5.2 0 0
5.6 0 0
6 0 0
6.4 0 0
6.8 0 0
7.2 0 0
7.6 0 0
8 0 0
8.4 0 0
8.8 0 0
9.2 0 0
9.6 0 0
10 0 0
10.4 0 0
10.8 0 0
11.2 0 0
11.6 0 0
12 0 0
12.4 0 0
12.8 0 0
13.2 0 0
13.6 0 0
14 0 0
14.4 0 0
14.8 0 0
15.2 0 0
15.6 0 0
16 0 0
16.4 0 0
16.8 0 0
17.2 0 0
17.6 0 0
18 0 0
18.4 0 0
18.8 0 0
19.2 0 0
19.6 0 0
20 0 0
20.4 0 0
20.8 0 0
21.2 0 0
21.6 0 0
22 0 0
22.4 0 0
22.8 0 0
23.2 0 0
23.6 0 0
24 0 0
24.4 0 0
24.8 0 0
25.2 0 0
25.6 0 0
26 0 0
26.4 0 0
26.8 0 0
27.2 0 0
27.6 0 0
28 0 0
28.4 0 0
28.8 0 0
29.2 0 0
29.6 0 0
30 0 0
30.4 0 0
30.8 0 0
31.2 0 0
31.6 0 0
32 0 0
32.4 0 0
32.8 0 0
33.2 0 0
33.6 0 0
34 0 0
34.4 0 0
34.8 0 0
35.2 0 0
35.6 0 0
36 0 0
36.4 0 0
36.8 0 0
37.2 0 0
37.6 0 0
38 0 0
38.4 0 0
38.8 0 0
39.2 0 0
39.6 0 0
40 0 0
40.4 0 0
0 0.1 0
0.4 0.1 0
0.8 0.1 0
1.2 0.1 0
1.6 0.1 0
2 0.1 0
2.4 0.1 0
2.8 0.1 0
3.2 0.1 0
3.6 0.1 0
4 0.1 0
4.4 0.1 0
4.8 0.1 0
5.2 0.1 0
5.6 0.1 0
6 0.1 0
6.4 0.1 0
6.8 0.1 0
7.2 0.1 0
7.6 0.1 0
8 0.1 0
8.4 0.1 0
8.8 0.1 0
9.2 0.1 0
9.6 0.1 0
10 0.1 0
10.4 0.1 0
10.8 0.1 0
11.2 0.1 0
11.6 0.1 0
12 0.1 0
12.4 0.1 0
12.8 0.1 0
13.2 0.1 0
13.6 0.1 0
14 0.1 0
14.4 0.1 0
14.8 0.1 0
15.2 0.1 0
15.6 0.1 0
16 0.1 0
16.4 0.1 0
16.8 0.1 0
17.2 0.1 0
17.6 0.1 0
18 0.1 0
18.4 0.1 0
18.8 0.1 0
19.2 0.1 0
19.6 0.1 0
20 0.1 0
20.4 0.1 0
20.8 0.1 0
21.2 0.1 0
21.6 0.1 0
22 0.1 0
22.4 0.1 0
22.8 0.1 0
23.2 0.1 0
23.6 0.1 0
24 0.1 0
24.4 0.1 0
24.8 0.1 0
25.2 0.1 0
25.6 0.1 0
26 0.1 0
26.4 0.1 0
26.8 0.1 0
27.2 0.1 0
27.6 0.1 0
28 0.1 0
28.4 0.1 0
28.8 0.1 0
29.2 0.1 0
29.6 0.1 0
30 0.1 0
30.4 0.1 0
30.8 0.1 0
31.2 0.1 0
31.6 0.1 0
32 0.1 0
32.4 0.1 0
32.8 0.1 0
33.2 0.1 0
33.6 0.1 0
34 0.1 0
34.4 0.1 0
34.8 0.1 0
35.2 0.1 0
35.6 0.1 0
36 0.1 0
36.4 0.1 0
36.8 0.1 0
37.2 0.1 0
37.6 0.1 0
38 0.1 0
38.4 0.1 0
38.8 0.1 0
39.2 0.1 0
39.6 0.1 0
40 0.1 0
40.4 0.1 0
0 0.2 0
0.4 0.2 0
0.8 0.2 0
1.2 0.2 0
1.6 0.2 0
2 0.2 0
2.4 0.2 0
2.8 0.2 0
3.2 0.2 0
3.6 0.2 0
4 0.2 0
4.4 0.2 0
4.8 0.2 0
5.2 0.2 0
5.6 0.2 0
6 0.2 0
6.4 0.2 0
6.8 0.2 0
7.2 0.2 0
7.6 0.2 0
8 0.2 0
8.4 0.2 0
8.8 0.2 0
9.2 0.2 0
9.6 0.2 0
10 0.2 0
10.4 0.2 0
10.8 0.2 0
11.2 0.2 0
11.6 0.2 0
12 0.2 0
12.4 0.2 0
12.8 0.2 0
13.2 0.2 0
13.6 0.2 0
14 0.2 0
14.4 0.2 0
14.8 0.2 0
15.2 0.2 0
15.6 0.2 0
16 0.2 0
16.4 0.2 0
16.8 0.2 0
17.2 0.2 0
17.6 0.2 0
18 0.2 0
18.4 0.2 0
18.8 0.2 0
19.2 0.2 0
19.6 0.2 0
20 0.2 0
20.4 0.2 0
20.8 0.2 0
21.2 0.2 0
21.6 0.2 0
22 0.2 0
22.4 0.2 0
22.8 0.2 0
23.2 0.2 0
23.6 0.2 0
24 0.2 0
24.4 0.2 0
24.8 0.2 0
25.2 0.2 0
25.6 0.2 0
26 0.2 0
26.4 0.2 0
26.8 0.2 0
27.2 0.2 0
27.6 0.2 0
28 0.2 0
28.4 0.2 0
28.8 0.2 0
29.2 0.2 0
29.6 0.2 0
30 0.2 0
30.4 0.2 0
30.8 0.2 0
31.2 0.2 0
31.6 0.2 0
32 0.2 0
32.4 0.2 0
32.8 0.2 0
33.2 0.2 0
33.6 0.2 0
34 0.2 0
34.4 0.2 0
34.8 0.2 0
35.2 0.2 0
35.6 0.2 0
36 0.2 0
36.4 0.2 0
36.8 0.2 0
37.2 0.2 0
37.6 0.2 0
38 0.2 0
38.4 0.2 0
38.8 0.2 0
39.2 0.2 0
39.6 0.2 0
40 0.2 0
40.4 0.2 0
0 0.3 0
0.4 0.3 0
0.8 0.3 0
1.2 0.3 0
1.6 0.3 0
2 0.3 0
2.4 0.3 0
2.8 0.3 0
3.2 0.3 0
3.6 0.3 0
4 0.3 0
4.4 0.3 0
4.8 0.3 0
5.2 0.3 0
5.6 0.3 0
6 0.3 0
6.4 0.3 0
6.8 0.3 0
7.2 0.3 0
7.6 0.3 0
8 0.3 0
8.4 0.3 0
8.8 0.3 0
9.2 0.3 0
9.6 0.3 0
10 0.3 0
10.4 0.3 0
10.8 0.3 0
11.2 0.3 0
11.6 0.3 0
12 0.3 0
12.4 0.3 0
12.8 0.3 0
13.2 0.3 0
13.6 0.3 0
14 0.3 0
14.4 0.3 0
14.8 0.3 0
15.2 0.3 0
15.6 0.3 0
16 0.3 0
16.4 0.3 0
16.8 0.3 0
17.2 0.3 0
17.6 0.3 0
18 0.3 0
18.4 0.3 0
18.8 0.3 0
19.2 0.3 0
19.6 0.3 0
20 0.3 0
20.4 0.3 0
20.8 0.3 0
21.2 0.3 0
21.6 0.3 0
22 0.3 0
22.4 0.3 0
22.8 0.3 0
23.2 0.3 0
23.6 0.3 0
24 0.3 0
24.4 0.3 0
24.8 0.3 0
25.2 0.3 0
25.6 0.3 0
26 0.3 0
26.4 0.3 0
26.8 0.3 0
27.2 0.3 0
27.6 0.3 0
28 0.3 0
28.4 0.3 0
28.8 0.3 0
29.2 0.3 0
29.6 0.3 0
30 0.3 0
30.4 0.3 0
30.8 0.3 0
31.2 0.3 0
31.6 0.3 0
32 0.3 0
32.4 0.3 0
32.8 0.3 0
33.2 0.3 0
33.6 0.3 0
34 0.3 0
34.4 0.3 0
34.8 0.3 0
35.2 0.3 0
35.6 0.3 0
36 0.3 0
36.4 0.3 0
36.8 0.3 0
37.2 0.3 0
37.6 0.3 0
38 0.3 0
38.4 0.3 0
38.8 0.3 0
39.2 0.3 0
39.6 0.3 0
40 0.3 0
40.4 0.3 0
0 0.4 0
0.4 0.4 0
0.8 0.4 0
1.2 0.4 0
1.6 0.4 0
2 0.4 0
2.4 0.4 0
2.8 0.4 0
3.2 0.4 0
3.6 0.4 0
4 0.4 0
4.4 0.4 0
4.8 0.4 0
5.2 0.4 0
5.6 0.4 0
6 0.4 0
6.4 0.4 0
6.8 0.4 0
7.2 0.4 0
7.6 0.4 0
8 0.4 0
8.4 0.4 0
8.8 0.4 0
9.2 0.4 0
9.6 0.4 0
10 0.4 0
10.4 0.4 0
10.8 0.4 0
11.2 0.4 0
11.6 0.4 0
12 0.4 0
12.4 0.4 0
12.8 0.4 0
13.2 0.4 0
13.6 0.4 0
14 0.4 0
14.4 0.4 0
14.8 0.4 0
15.2 0.4 0
15.6 0.4 0
16 0.4 0
16.4 0.4 0
16.8 0.4 0
17.2 0.4 0
17.6 0.4 0
18 0.4 0
18.4 0.4 0
18.8 0.4 0
19.2 0.4 0
19.6 0.4 0
20 0.4 0
20.4 0.4 0
20.8 0.4 0
21.2 0.4 0
21.6 0.4 0
22 0.4 0
22.4 0.4 0
22.8 0.4 0
23.2 0.4 0
23.6 0.4 0
24 0.4 0
24.4 0.4 0
24.8 0.4 0
25.2 0.4 0
25.6 0.4 0
26 0.4 0
26.4 0.4 0
26.8 0.4 0
27.2 0.4 0
27.6 0.4 0
28 0.4 0
28.4 0.4 0
28.8 0.4 0
29.2 0.4 0
29.6 0.4 0
30 0.4 0
30.4 0.4 0
30.8 0.4 0
31.2 0.4 0
31.6 0.4 0
32 0.4 0
32.4 0.4 0
32.8 0.4 0
33.2 0.4 0
33.6 0.4 0
34 0.4 0
34.4 0.4 0
34.8 0.4 0
35.2 0.4 0
35.6 0.4 0
36 0.4 0
36.4 0.4 0
36.8 0.4 0
37.2 0.4 0
37.6 0.4 0
38 0.4 0
38.4 0.4 0
38.8 0.4 0
39.2 0.4 0
39.6 0.4 0
40 0.4 0
40.4 0.4 0
0 0.5 0
0.4 0.5 0
0.8 0.5 0
1.2 0.5 0
1.6 0.5 0
2 0.5 0
2.4 0.5 0
2.8 0.5 0
3.2 0.5 0
3.6 0.5 0
4 0.5 0
4.4 0.5 0
4.8 0.5 0
5.2 0.5 0
5.6 0.5 0
6 0.5 0
6.4 0.5 0
6.8 0.5 0
7.2 0.5 0
7.6 0.5 0
8 0.5 0
8.4 0.5 0
8.8 0.5 0
9.2 0.5 0
9.6 0.5 0
10 0.5 0
10.4 0.5 0
10.8 0.5 0
11.2 0.5 0
11.6 0.5 0
12 0.5 0
12.4 0.5 0
12.8 0.5 0
13.2 0.5 0
13.6 0.5 0
14 0.5 0
14.4 0.5 0
14.8 0.5 0
15.2 0.5 0
15.6 0.5 0
16 0.5 0
16.4 0.5 0
16.8 0.5 0
17.2 0.5 0
17.6 0.5 0
18 0.5 0
18.4 0.5 0
18.8 0.5 0
19.2 0.5 0
19.6 0.5 0
20 0.5 0
20.4 0.5 0
20.8 0.5 0
21.2 0.5 0
21.6 0.5 0
22 0.5 0
22.4 0.5 0
22.8 0.5 0
23.2 0.5 0
23.6 0.5 0
24 0.5 0
24.4 0.5 0
24.8 0.5 0
25.2 0.5 0
25.6 0.5 0
26 0.5 0
26.4 0.5 0
26.8 0.5 0
27.2 0.5 0
27.6 0.5 0
28 0.5 0
28.4 0.5 0
28.8 0.5 0
29.2 0.5 0
29.6 0.5 0
30 0.5 0
30.4 0.5 0
30.8 0.5 0
31.2 0.5 0
31.6 0.5 0
32 0.5 0
32.4 0.5 0
32.8 0.5 0
33.2 0.5 0
33.6 0.5 0
34 0.5 0
34.4 0.5 0
34.8 0.5 0
35.2 0.5 0
35.6 0.5 0
36 0.5 0
36.4 0.5 0
36.8 0.5 0
37.2 0.5 0
37.6 0.5 0
38 0.5 0
38.4 0.5 0
38.8 0.5 0
39.2 0.5 0
39.6 0.5 0
40 0.5 0
40.4 0.5 0
0 0.6 0
0.4 0.6 0
0.8 0.6 0
1.2 0.6 0
1.6 0.6 0
2 0.6 0
2.4 0.6 0
2.8 0.6 0
3.2 0.6 0
3.6 0.6 0
4 0.6 0
4.4 0.6 0
4.8 0.6 0
5.2 0.6 0
5.6 0.6 0
6 0.6 0
6.4 0.6 0
6.8 0.6 0
7.2 0.6 0
7.6 0.6 0
8 0.6 0
8.4 0.6 0
8.8 0.6 0
9.2 0.6 0
9.6 0.6 0
10 0.6 0
10.4 0.6 0
10.8 0.6 0
11.2 0.6 0
11.6 0.6 0
12 0.6 0
12.4 0.6 0
12.8 0.6 0
13.2 0.6 0
13.6 0.6 0
14 0.6 0
14.4 0.6 0
14.8 0.6 0
15.2 0.6 0
15.6 0.6 0
16 0.6 0
16.4 0.6 0
16.8 0.6 0
17.2 0.6 0
17.6 0.6 0
18 0.6 0
18.4 0.6 0
18.8 0.6 0
19.2 0.6 0
19.6 0.6 0
20 0.6 0
20.4 0.6 0
20.8 0.6 0
21.2 0.6 0
21.6 0.6 0
22 0.6 0
22.4 0.6 0
22.8 0.6 0
23.2 0.6 0
23.6 0.6 0
24 0.6 0
24.4 0.6 0
24.8 0.6 0
25.2 0.6 0
25.6 0.6 0
26 0.6 0
26.4 0.6 0
26.8 0.6 0
27.2 0.6 0
27.6 0.6 0
28 0.6 0
28.4 0.6 0
28.8 0.6 0
29.2 0.6 0
29.6 0.6 0
30 0.6 0
30.4 0.6 0
30.8 0.6 0
31.2 0.6 0
31.6 0.6 0
32 0.6 0
32.4 0.6 0
32.8 0.6 0
33.2 0.6 0
33.6 0.6 0
34 0.6 0
34.4 0.6 0
34.8 0.6 0
35.2 0.6 0
35.6 0.6 0
36 0.6 0
36.4 0.6 0
36.8 0.6 0
37.2 0.6 0
37.6 0.6 0
38 0.6 0
38.4 0.6 0
38.8 0.6 0
39.2 0.6 0
39.6 0.6 0
40 0.6 0
40.4 0.6 0
0 0.7 0
0.4 0.7 0
0.8 0.7 0
1.2 0.7 0
1.6 0.7 0
2 0.7 0
2.4 0.7 0
2.8 0.7 0
3.2 0.7 0
3.6 0.7 0
4 0.7 0
4.4 0.7 0
4.8 0.7 0
5.2 0.7 0
5.6 0.7 0
6 0.7 0
6.4 0.7 0
6.8 0.7 0
7.2 0.7 0
7.6 0.7 0
8 0.7 0
8.4 0.7 0
8.8 0.7 0
9.2 0.7 0
9.6 0.7 0
10 0.7 0
10.4 0.7 0
10.8 0.7 0
11.2 0.7 0
11.6 0.7 0
12 0.7 0
12.4 0.7 0
12.8 0.7 0
13.2 0.7 0
13.6 0.7 0
14 0.7 0
14.4 0.7 0
14.8 0.7 0
15.2 0.7 0
15.6 0.7 0
16 0.7 0
16.4 0.7 0
16.8 0.7 0
17.2 0.7 0
17.6 0.7 0
18 0.7 0
18.4 0.7 0
18.8 0.7 0
19.2 0.7 0
19.6 0.7 0
20 0.7 0
20.4 0.7 0
20.8 0.7 0
21.2 0.7 0
21.6 0.7 0
22 0.7 0
22.4 0.7 0
22.8 0.7 0
23.2 0.7 0
23.6 0.7 0
24 0.7 0
24.4 0.7 0
24.8 0.7 0
25.2 0.7 0
25.6 0.7 0
26 0.7 0
26.4 0.7 0
26.8 0.7 0
27.2 0.7 0
27.6 0.7 0
28 0.7 0
28.4 0.7 0
28.8 0.7 0
29.2 0.7 0
29.6 0.7 0
30 0.7 0
30.4 0.7 0
30.8 0.7 0
31.2 0.7 0
31.6 0.7 0
32 0.7 0
32.4 0.7 0
32.8 0.7 0
33.2 0.7 0
33.6 0.7 0
34 0.7 0
34.4 0.7 0
34.8 0.7 0
35.2 0.7 0
35.6 0.7 0
36 0.7 0
36.4 0.7 0
36.8 0.7 0
37.2 0.7 0
37.6 0.7 0
38 0.7 0
38.4 0.7 0
38.8 0.7 0
39.2 0.7 0
39.6 0.7 0
40 0.7 0
40.4 0.7 0
0 0.8 0
0.4 0.8 0
0.8 0.8 0
1.2 0.8 0
1.6 0.8 0
2 0.8 0
2.4 0.8 0
2.8 0.8 0
3.2 0.8 0
3.6 0.8 0
4 0.8 0
4.4 0.8 0
4.8 0.8 0
5.2 0.8 0
5.6 0.8 0
6 0.8 0
6.4 0.8 0
6.8 0.8 0
7.2 0.8 0
7.6 0.8 0
8 0.8 0
8.4 0.8 0
8.8 0.8 0
9.2 0.8 0
9.6 0.8 0
10 0.8 0
10.4 0.8 0
10.8 0.8 0
11.2 0.8 0
11.6 0.8 0
12 0.8 0
12.4 0.8 0
12.8 0.8 0
13.2 0.8 0
13.6 0.8 0
14 0.8 0
14.4 0.8 0
14.8 0.8 0
15.2 0.8 0
15.6 0.8 0
16 0.8 0
16.4 0.8 0
16.8 0.8 0
17.2 0.8 0
17.6 0.8 0
18 0.8 0
18.4 0.8 0
18.8 0.8 0
19.2 0.8 0
19.6 0.8 0
20 0.8 0
20.4 0.8 0
20.8 0.8 0
21.2 0.8 0
21.6 0.8 0
22 0.8 0
22.4 0.8 0
22.8 0.8 0
23.2 0.8 0
23.6 0.8 0
24 0.8 0
24.4 0.8 0
24.8 0.8 0
25.2 0.8 0
25.6 0.8 0
26 0.8 0
26.4 0.8 0
26.8 0.8 0
27.2 0.8 0
27.6 0.8 0
28 0.8 0
28.4 0.8 0
28.8 0.8 0
29.2 0.8 0
29.6 0.8 0
30 0.8 0
30.4 0.8 0
30.8 0.8 0
31.2 0.8 0
31.6 0.8 0
32 0.8 0
32.4 0.8 0
32.8 0.8 0
33.2 0.8 0
33.6 0.8 0
34 0.8 0
34.4 0.8 0
34.8 0.8 0
35.2 0.8 0
35.6 0.8 0
36 0.8 0
36.4 0.8 0
36.8 0.8 0
37.2 0.8 0
37.6 0.8 0
38 0.8 0
38.4 0.8 0
38.8 0.8 0
39.2 0.8 0
39.6 0.8 0
40 0.8 0
40.4 0.8 0
0 0.9 0
0.4 0.9 0
0.8 0.9 0
1.2 0.9 0
1.6 0.9 0
2 0.9 0
2.4 0.9 0
2.8 0.9 0
3.2 0.9 0
3.6 0.9 0
4 0.9 0
4.4 0.9 0
4.8 0.9 0
5.2 0.9 0
5.6 0.9 0
6 0.9 0
6.4 0.9 0
6.8 0.9 0
7.2 0.9 0
7.6 0.9 0
8 0.9 0
8.4 0.9 0
8.8 0.9 0
9.2 0.9 0
9.6 0.9 0
10 0.9 0
10.4 0.9 0
10.8 0.9 0
11.2 0.9 0
11.6 0.9 0
12 0.9 0
12.4 0.9 0
12.8 0.9 0
13.2 0.9 0
13.6 0.9 0
14 0.9 0
14.4 0.9 0
14.8 0.9 0
15.2 0.9 0
15.6 0.9 0
16 0.9 0
16.4 0.9 0
16.8 0.9 0
17.2 0.9 0
17.6 0.9 0
18 0.9 0
18.4 0.9 0
18.8 0.9 0
19.2 0.9 0
19.6 0.9 0
20 0.9 0
20.4 0.9 0
20.8 0.9 0
21.2 0.9 0
21.6 0.9 0
22 0.9 0
22.4 0.9 0
22.8 0.9 0
23.2 0.9 0
23.6 0.9 0
24 0.9 0
24.4 0.9 0
24.8 0.9 0
25.2 0.9 0
25.6 0.9 0
26 0.9 0
26.4 0.9 0
26.8 0.9 0
27.2 0.9 0
27.6 0.9 0
28 0.9 0
28.4 0.9 0
28.8 0.9 0
29.2 0.9 0
29.6 0.9 0
30 0.9 0
30.4 0.9 0
30.8 0.9 0
31.2 0.9 0
31.6 0.9 0
32 0.9 0
32.4 0.9 0
32.8 0.9 0
33.2 0.9 0
33.6 0.9 0
34 0.9 0
34.4 0.9 0
34.8 0.9 0
35.2 0.9 0
35.6 0.9 0
36 0.9 0
36.4 0.9 0
36.8 0.9 0
37.2 0.9 0
37.6 0.9 0
38 0.9 0
38.4 0.9 0
38.8 0.9 0
39.2 0.9 0
39.6 0.9 0
40 0.9 0
40.4 0.9 0
0 1 0
0.4 1 0
0.8 1 0
1.2 1 0
1.6 1 0
2 1 0
2.4 1 0
2.8 1 0
3.2 1 0
3.6 1 0
4 1 0
4.4 1 0
4.8 1 0
5.2 1 0
5.6 1 0
6 1 0
6.4 1 0
6.8 1 0
7.2 1 0
7.6 1 0
8 1 0
8.4 1 0
8.8 1 0
9.2 1 0
9.6 1 0
10 1 0
10.4 1 0
10.8 1 0
11.2 1 0
11.6 1 0
12 1 0
12.4 1 0
12.8 1 0
13.2 1 0
13.6 1 0
14 1 0
14.4 1 0
14.8 1 0
15.2 1 0
15.6 1 0
16 1 0
16.4 1 0
16.8 1 0
17.2 1 0
17.6 1 0
18 1 0
18.4 1 0
18.8 1 0
19.2 1 0
19.6 1 0
20 1 0
20.4 1 0
20.8 1 0
21.2 1 0
21.6 1 0
22 1 0
22.4 1 0
22.8 1 0
23.2 1 0
23.6 1 0
24 1 0
24.4 1 0
24.8 1 0
25.2 1 0
25.6 1 0
26 1 0
26.4 1 0
26.8 1 0
27.2 1 0
27.6 1 0
28 1 0
28.4 1 0
28.8 1 0
29.2 1 0
29.6 1 0
30 1 0
30.4 1 0
30.8 1 0
31.2 1 0
31.6 1 0
32 1 0
32.4 1 0
32.8 1 0
33.2 1 0
33.6 1 0
34 1 0
34.4 1 0
34.8 1 0
35.2 1 0
35.6 1 0
36 1 0
36.4 1 0
36.8 1 0
37.2 1 0
37.6 1 0
38 1 0
38.4 1 0
38.8 1 0
39.2 1 0
39.6 1 0
40 1 0
40.4 1 0
0 1.1 0
0.4 1.1 0
0.8 1.1 0
1.2 1.1 0
1.6 1.1 0
2 1.1 0
2.4 1.1 0
2.8 1.1 0
3.2 1.1 0
3.6 1.1 0
4 1.1 0
4.4 1.1 0
4.8 1.1 0
5.2 1.1 0
5.6 1.1 0
6 1.1 0
6.4 1.1 0
6.8 1.1 0
7.2 1.1 0
7.6 1.1 0
8 1.1 0
8.4 1.1 0
8.8 1.1 0
9.2 1.1 0
9.6 1.1 0
10 1.1 0
10.4 1.1 0
10.8 1.1 0
11.2 1.1 0
11.6 1.1 0
12 1.1 0
12.4 1.1 0
12.8 1.1 0
13.2 1.1 0
13.6 1.1 0
14 1.1 0
14.4 1.1 0
14.8 1.1 0
15.2 1.1 0
15.6 1.1 0
16 1.1 0
16.4 1.1 0
16.8 1.1 0
17.2 1.1 0
17.6 1.1 0
18 1.1 0
18.4 1.1 0
18.8 1.1 0
19.2 1.1 0
19.6 1.1 0
20 1.1 0
20.4 1.1 0
20.8 1.1 0
21.2 1.1 0
21.6 1.1 0
22 1.1 0
22.4 1.1 0
22.8 1.1 0
23.2 1.1 0
23.6 1.1 0
24 1.1 0
24.4 1.1 0
24.8 1.1 0
25.2 1.1 0
25.6 1.1 0
26 1.1 0
26.4 1.1 0
26.8 1.1 0
27.2 1.1 0
27.6 1.1 0
28 1.1 0
28.4 1.1 0
28.8 1.1 0
29.2 1.1 0
29.6 1.1 0
30 1.1 0
30.4 1.1 0
30.8 1.1 0
31.2 1.1 0
31.6 1.1 0
32 1.1 0
32.4 1.1 0
32.8 1.1 0
33.2 1.1 0
33.6 1.1 0
34 1.1 0
34.4 1.1 0
34.8 1.1 0
35.2 1.1 0
35.6 1.1 0
36 1.1 0
36.4 1.1 0
36.8 1.1 0
37.2 1.1 0
37.6 1.1 0
38 1.1 0
38.4 1.1 0
38.8 1.1 0
39.2 1.1 0
39.6 1.1 0
40 1.1 0
40.4 1.1 0

POINT_DATA 1224

SCALARS u double
LOOKUP_TABLE default
-1.15742
-0.842585
-0.620822
-0.489981
-0.418736
-0.380102
-0.357792
-0.343603
-0.333722
-0.326371
-0.320668
-0.316128
-0.312454
-0.309448
-0.30697
-0.304913
-0.3032
-0.301767
-0.300566
-0.299561
-0.298721
-0.298024
-0.297452
-0.296989
-0.296621
-0.296334
-0.296116
-0.295954
-0.295838
-0.295757
-0.295701
-0.295665
-0.295641
-0.295627
-0.295618
-0.295613
-0.29561
-0.295608
-0.295608
-0.295607
-0.295607
-0.295607
-0.295607
-0.295607
-0.295607
-0.295607
-0.295607
-0.295607
-0.295607
-0.295607
-0.295607
-0.295607
-0.295607
-0.295607
-0.295607
-0.295607
-0.295607
-0.295607
-0.295607
-0.295607
-0.295607
-0.295607
-0.295607
-0.295607
-0.295607
-0.295607
-0.295607
-0.295607
-0.295607
-0.295607
-0.295607
-0.295607
-0.295607
-0.295607
-0.295607
-0.295607
-0.295607
-0.295607
-0.295607
-0.295607
-0.295607
-0.295607
-0.295607
-0.295607
-0.295607
-0.295607
-0.295607
-0.295607
-0.295607
-0.295607
-0.295607
-0.295607
-0.295607
-0.295607
-0.295607
-0.295607
-0.295607
-0.295607
-0.295607
-0.295609
-0.295609
-1
1.15742
0.842585
0.620822
0.489981
0.418736
0.380102
0.357792
0.343603
0.333722
0.326371
0.320668
0.316128
0.312454
0.309448
0.30697
0.304913
0.3032
0.301767
0.300566
0.299561
0.298721
0.298024
0.297452
0.296989
0.296621
0.296334
0.296116
0.295954
0.295838
0.295757
0.295701
0.295665
0.295641
0.295627
0.295618
0.295613
0.29561
0.295608
0.295608
0.295607
0.295607
0.295607
0.295607
0.295607
0.295607
0.295607
0.295607
0.295607
0.295607
0.295607
0.295607
0.295607
0.295607
0.295607
0.295607
0.295607
0.295607
0.295607
0.295607
0.295607
0.295607
0.295607
0.295607
0.295607
0.295607
0.295607
0.295607
0.295607
0.295607
0.295607
0.295607
0.295607
0.295607
0.295607
0.295607
0.295607
0.295607
0.295607
0.295607
0.295607
0.295607
0.295607
0.295607
0.295607
0.295607
0.295607
0.295607
0.295607
0.295607
0.295607
0.295607
0.295607
0.295607
0.295607
0.295607
0.295607
0.295607
0.295607
0.295607
0.295609
0.295609
1
0.976268
1.02373
1.00214
0.963808
0.926544
0.895175
0.870077
0.850297
0.834697
0.822303
0.812363
0.804317
0.79775
0.792351
0.787887
0.784179
0.781087
0.778501
0.776337
0.774526
0.773016
0.771767
0.770743
0.769916
0.76926
0.768751
0.768365
0.76808
0.767874
0.767731
0.767634
0.76757
0.767529
0.767503
0.767488
0.767479
0.767474
0.767471
0.76747
0.767469
0.767468
0.767468
0.767468
0.767468
0.767468
0.767468
0.767468
0.767468
0.767468
0.767468
0.767468
0.767468
0.767468
0.767468
0.767468
0.767468
0.767468
0.767468
0.767468
0.767468
0.767469
0.767469
0.767469
0.767469
0.767469
0.767469
0.767469
0.767469
0.767469
0.767469
0.767469
0.767469
0.767469
0.767469
0.767469
0.767469
0.767469
0.767469
0.767469
0.767469
0.767469
0.767469
0.767469
0.767469
0.767469
0.767469
0.767469
0.767469
0.767469
0.767469
0.767469
0.767469
0.767469
0.767469
0.767469
0.767469
0.767469
0.767469
0.767468
0.767478
0.767478
1
0.95324
1.04676
1.10995
1.14211
1.15506
1.15802
1.15636
1.15284
1.14875
1.14469
1.14094
1.13758
1.13463
1.13209
1.1299
1.12803
1.12644
1.12509
1.12395
1.12298
1.12217
1.12149
1.12093
1.12047
1.1201
1.11981
1.11959
1.11942
1.11929
1.1192
1.11914
1.1191
1.11907
1.11906
1.11904
1.11904
1.11903
1.11903
1.11903
1.11903
1.11903
1.11903
1.11903
1.11903
1.11903
1.11903
1.11903
1.11903
1.11903
1.11903
1.11903
1.11903
1.11903
1.11903
1.11903
1.11903
1.11903
1.11903
1.11903
1.11903
1.11903
1.11903
1.11903
1.11903
1.11903
1.11903
1.11903
1.11903
1.11903
1.11903
1.11903
1.11903
1.11903
1.11903
1.11903
1.11903
1.11903
1.11903
1.11903
1.11903
1.11903
1.11903
1.11903
1.11903
1.11903
1.11903
1.11903
1.11903
1.11903
1.11903
1.11903
1.11903
1.11903
1.11903
1.11903
1.11903
1.11903
1.11903
1.11903
1.11904
1.11904
1
0.955191
1.04481
1.13263
1.19618
1.23828
1.26619
1.28547
1.29942
1.30989
1.31796
1.32429
1.32933
1.33338
1.33668
1.33937
1.34159
1.34342
1.34494
1.34621
1.34727
1.34815
1.34888
1.34947
1.34994
1.35032
1.35061
1.35083
1.35099
1.3511
1.35118
1.35123
1.35127
1.35129
1.3513
1.35131
1.35132
1.35132
1.35132
1.35132
1.35132
1.35132
1.35132
1.35132
1.35132
1.35132
1.35132
1.35132
1.35132
1.35132
1.35132
1.35132
1.35132
1.35132
1.35132
1.35132
1.35132
1.35132
1.35132
1.35132
1.35132
1.35132
1.35132
1.35132
1.35132
1.35132
1.35132
1.35132
1.35132
1.35132
1.35132
1.35132
1.35132
1.35132
1.35132
1.35132
1.35132
1.35132
1.35132
1.35132
1.35132
1.35132
1.35132
1.35132
1.35132
1.35132
1.35132
1.35132
1.35132
1.35132
1.35132
1.35132
1.35132
1.35132
1.35132
1.35132
1.35132
1.35132
1.35132
1.35132
1.35132
1.35132
1
0.957886
1.04211
1.13446
1.20791
1.26138
1.30051
1.33029
1.35384
1.37294
1.38868
1.40174
1.41265
1.42178
1.42944
1.43587
1.44129
1.44585
1.4497
1.45294
1.45566
1.45795
1.45985
1.46141
1.46268
1.4637
1.4645
1.46511
1.46556
1.4659
1.46613
1.46629
1.4664
1.46647
1.46651
1.46654
1.46656
1.46657
1.46657
1.46658
1.46658
1.46658
1.46658
1.46658
1.46658
1.46658
1.46658
1.46658
1.46658
1.46658
1.46658
1.46658
1.46658
1.46658
1.46658
1.46658
1.46658
1.46658
1.46658
1.46658
1.46658
1.46658
1.46658
1.46658
1.46658
1.46658
1.46658
1.46658
1.46658
1.46658
1.46658
1.46658
1.46658
1.46658
1.46658
1.46658
1.46658
1.46658
1.46658
1.46658
1.46658
1.46658
1.46658
1.46658
1.46658
1.46658
1.46658
1.46658
1.46658
1.46658
1.46658
1.46658
1.46658
1.46658
1.46658
1.46658
1.46658
1.46658
1.46658
1.46658
1.46657
1.46657
1
0.957886
1.04211
1.13446
1.20791
1.26138
1.30051
1.33029
1.35384
1.37294
1.38868
1.40174
1.41265
1.42178
1.42944
1.43588
1.44129
1.44585
1.4497
1.45294
1.45566
1.45795
1.45985
1.46141
1.46268
1.4637
1.4645
1.46511
1.46556
1.4659
1.46613
1.46629
1.4664
1.46647
1.46651
1.46654
1.46656
1.46657
1.46657
1.46658
1.46658
1.46658
1.46658
1.46658
1.46658
1.46658
1.46658
1.46658
1.46658
1.46658
1.46658
1.46658
1.46658
1.46658
1.46658
1.46658
1.46658
1.46658
1.46658
1.46658
1.46658
1.46658
1.46658
1.46658
1.46658
1.46658
1.46658
1.46658
1.46658
1.46658
1.46658
1.46658
1.46658
1.46658
1.46658
1.46658
1.46658
1.46658
1.46658
1.46658
1.46658
1.46658
1.46658
1.46658
1.46658
1.46658
1.46658
1.46658
1.46658
1.46658
1.46658
1.46658
1.46658
1.46658
1.46658
1.46658
1.46658
1.46658
1.46658
1.46658
1.46657
1.46657
1
0.955191
1.04481
1.13263
1.19618
1.23828
1.26619
1.28547
1.29942
1.30989
1.31796
1.32429
1.32933
1.33339
1.33668
1.33937
1.34159
1.34342
1.34495
1.34621
1.34727
1.34815
1.34888
1.34947
1.34994
1.35032
1.35061
1.35083
1.35099
1.3511
1.35118
1.35124
1.35127
1.35129
1.3513
1.35131
1.35132
1.35132
1.35132
1.35132
1.35132
1.35132
1.35132
1.35132
1.35132
1.35132
1.35132
1.35132
1.35132
1.35132
1.35132
1.35132
1.35132
1.35132
1.35132
1.35132
1.35132
1.35132
1.35132
1.35132
1.35132
1.35132
1.35132
1.35132
1.35132
1.35132
1.35132
1.35132
1.35132
1.35132
1.35132
1.35132
1.35132
1.35132
1.35132
1.35132
1.35132
1.35132
1.35132
1.35132
1.35132
1.35132
1.35132
1.35132
1.35132
1.35132
1.35132
1.35132
1.35132
1.35132
1.35132
1.35132
1.35132
1.35132
1.35132
1.35132
1.35132
1.35132
1.35132
1.35132
1.35132
1.35132
1
0.95324
1.04676
1.10995
1.14211
1.15506
1.15802
1.15637
1.15284
1.14875
1.14469
1.14094
1.13758
1.13463
1.13209
1.1299
1.12803
1.12644
1.12509
1.12395
1.12298
1.12217
1.12149
1.12093
1.12047
1.1201
1.11981
1.11959
1.11942
1.11929
1.1192
1.11914
1.1191
1.11907
1.11906
1.11905
1.11904
1.11904
1.11903
1.11903
1.11903
1.11903
1.11903
1.11903
1.11903
1.11903
1.11903
1.11903
1.11903
1.11903
1.11903
1.11903
1.11903
1.11903
1.11903
1.11903
1.11903
1.11903
1.11903
1.11903
1.11903
1.11903
1.11903
1.11903
1.11903
1.11903
1.11903
1.11903
1.11903
1.11903
1.11903
1.11903
1.11903
1.11903
1.11903
1.11903
1.11903
1.11903
1.11903
1.11903
1.11903
1.11903
1.11903
1.11903
1.11903
1.11903
1.11903
1.11903
1.11903
1.11903
1.11903
1.11903
1.11903
1.11903
1.11903
1.11903
1.11903
1.11903
1.11903
1.11903
1.11904
1.11904
1
0.976268
1.02373
1.00214
0.963808
0.926544
0.895175
0.870078
0.850298
0.834698
0.822304
0.812364
0.804318
0.79775
0.792352
0.787888
0.78418
0.781088
0.778502
0.776337
0.774526
0.773017
0.771767
0.770743
0.769917
0.769261
0.768752
0.768366
0.76808
0.767875
0.767732
0.767634
0.76757
0.767529
0.767504
0.767488
0.767479
0.767474
0.767471
0.76747
0.767469
0.767469
0.767469
0.767469
0.767469
0.767469
0.767469
0.767469
0.767469
0.767469
0.767469
0.767469
0.767469
0.767469
0.767469
0.767469
0.767469
0.767469
0.767469
0.767469
0.767469
0.767469
0.767469
0.767469
0.767469
0.767469
0.767469
0.767469
0.767469
0.767469
0.767469
0.767469
0.767469
0.767469
0.767469
0.767469
0.767469
0.767469
0.767469
0.767469
0.767469
0.767469
0.767469
0.767469
0.767469
0.767469
0.767469
0.767469
0.767469
0.767469
0.767469
0.767469
0.767469
0.767469
0.767469
0.767469
0.767469
0.767469
0.767469
0.767468
0.767478
0.767478
1
1.15742
0.842585
0.620822
0.489981
0.418736
0.380103
0.357792
0.343604
0.333723
0.326371
0.320668
0.316128
0.312454
0.309449
0.30697
0.304914
0.3032
0.301767
0.300567
0.299561
0.298721
0.298025
0.297452
0.296989
0.296621
0.296334
0.296116
0.295955
0.295838
0.295757
0.295702
0.295665
0.295642
0.295627
0.295618
0.295613
0.29561
0.295609
0.295608
0.295607
0.295607
0.295607
0.295607
0.295607
0.295607
0.295607
0.295607
0.295607
0.295607
0.295607
0.295607
0.295607
0.295607
0.295607
0.295607
0.295607
0.295607
0.295607
0.295607
0.295607
0.295607
0.295607
0.295607
0.295607
0.295607
0.295607
0.295607
0.295607
0.295607
0.295607
0.295607
0.295607
0.295607
0.295607
0.295607
0.295607
0.295607
0.295607
0.295607
0.295607
0.295607
0.295607
0.295607
0.295607
0.295607
0.295607
0.295607
0.295607
0.295607
0.295607
0.295607
0.295607
0.295607
0.295607
0.295607
0.295607
0.295607
0.295607
0.295607
0.295609
0.295609
1
-1.15742
-0.842585
-0.620822
-0.489981
-0.418736
-0.380103
-0.357792
-0.343604
-0.333723
-0.326371
-0.320668
-0.316128
-0.312454
-0.309449
-0.30697
-0.304914
-0.3032
-0.301767
-0.300567
-0.299561
-0.298721
-0.298025
-0.297452
-0.296989
-0.296621
-0.296334
-0.296116
-0.295955
-0.295838
-0.295757
-0.295702
-0.295665
-0.295642
-0.295627
-0.295618
-0.295613
-0.29561
-0.295609
-0.295608
-0.295607
-0.295607
-0.295607
-0.295607
-0.295607
-0.295607
-0.295607
-0.295607
-0.295607
-0.295607
-0.295607
-0.295607
-0.295607
-0.295607
-0.295607
-0.295607
-0.295607
-0.295607
-0.295607
-0.295607
-0.295607
-0.295607
-0.295607
-0.295607
-0.295607
-0.295607
-0.295607
-0.295607
-0.295607
-0.295607
-0.295607
-0.295607
-0.295607
-0.295607
-0.295607
-0.295607
-0.295607
-0.295607
-0.295607
-0.295607
-0.295607
-0.295607
-0.295607
-0.295607
-0.295607
-0.295607
-0.295607
-0.295607
-0.295607
-0.295607
-0.295607
-0.295607
-0.295607
-0.295607
-0.295607
-0.295607
-0.295607
-0.295607
-0.295607
-0.295607
-0.295609
-0.295609
-1
