# vtk DataFile Version 2.0
FlowField
ASCII
DATASET STRUCTURED_GRID
DIMENSIONS 102 1 12 
POINTS 1224 double
0 0 0
0.3 0 0
0.6 0 0
0.9 0 0
1.2 0 0
1.5 0 0
1.8 0 0
2.1 0 0
2.4 0 0
2.7 0 0
3 0 0
3.3 0 0
3.6 0 0
3.9 0 0
4.2 0 0
4.5 0 0
4.8 0 0
5.1 0 0
5.4 0 0
5.7 0 0
6 0 0
6.3 0 0
6.6 0 0
6.9 0 0
7.2 0 0
7.5 0 0
7.8 0 0
8.1 0 0
8.4 0 0
8.7 0 0
9 0 0
9.3 0 0
9.6 0 0
9.9 0 0
10.2 0 0
10.5 0 0
10.8 0 0
11.1 0 0
11.4 0 0
11.7 0 0
12 0 0
12.3 0 0
12.6 0 0
12.9 0 0
13.2 0 0
13.5 0 0
13.8 0 0
14.1 0 0
14.4 0 0
14.7 0 0
15 0 0
15.3 0 0
15.6 0 0
15.9 0 0
16.2 0 0
16.5 0 0
16.8 0 0
17.1 0 0
17.4 0 0
17.7 0 0
18 0 0
18.3 0 0
18.6 0 0
18.9 0 0
19.2 0 0
19.5 0 0
19.8 0 0
20.1 0 0
20.4 0 0
20.7 0 0
21 0 0
21.3 0 0
21.6 0 0
21.9 0 0
22.2 0 0
22.5 0 0
22.8 0 0
23.1 0 0
23.4 0 0
23.7 0 0
24 0 0
24.3 0 0
24.6 0 0
24.9 0 0
25.2 0 0
25.5 0 0
25.8 0 0
26.1 0 0
26.4 0 0
26.7 0 0
27 0 0
27.3 0 0
27.6 0 0
27.9 0 0
28.2 0 0
28.5 0 0
28.8 0 0
29.1 0 0
29.4 0 0
29.7 0 0
30 0 0
30.3 0 0
0 0.1 0
0.3 0.1 0
0.6 0.1 0
0.9 0.1 0
1.2 0.1 0
1.5 0.1 0
1.8 0.1 0
2.1 0.1 0
2.4 0.1 0
2.7 0.1 0
3 0.1 0
3.3 0.1 0
3.6 0.1 0
3.9 0.1 0
4.2 0.1 0
4.5 0.1 0
4.8 0.1 0
5.1 0.1 0
5.4 0.1 0
5.7 0.1 0
6 0.1 0
6.3 0.1 0
6.6 0.1 0
6.9 0.1 0
7.2 0.1 0
7.5 0.1 0
7.8 0.1 0
8.1 0.1 0
8.4 0.1 0
8.7 0.1 0
9 0.1 0
9.3 0.1 0
9.6 0.1 0
9.9 0.1 0
10.2 0.1 0
10.5 0.1 0
10.8 0.1 0
11.1 0.1 0
11.4 0.1 0
11.7 0.1 0
12 0.1 0
12.3 0.1 0
12.6 0.1 0
12.9 0.1 0
13.2 0.1 0
13.5 0.1 0
13.8 0.1 0
14.1 0.1 0
14.4 0.1 0
14.7 0.1 0
15 0.1 0
15.3 0.1 0
15.6 0.1 0
15.9 0.1 0
16.2 0.1 0
16.5 0.1 0
16.8 0.1 0
17.1 0.1 0
17.4 0.1 0
17.7 0.1 0
18 0.1 0
18.3 0.1 0
18.6 0.1 0
18.9 0.1 0
19.2 0.1 0
19.5 0.1 0
19.8 0.1 0
20.1 0.1 0
20.4 0.1 0
20.7 0.1 0
21 0.1 0
21.3 0.1 0
21.6 0.1 0
21.9 0.1 0
22.2 0.1 0
22.5 0.1 0
22.8 0.1 0
23.1 0.1 0
23.4 0.1 0
23.7 0.1 0
24 0.1 0
24.3 0.1 0
24.6 0.1 0
24.9 0.1 0
25.2 0.1 0
25.5 0.1 0
25.8 0.1 0
26.1 0.1 0
26.4 0.1 0
26.7 0.1 0
27 0.1 0
27.3 0.1 0
27.6 0.1 0
27.9 0.1 0
28.2 0.1 0
28.5 0.1 0
28.8 0.1 0
29.1 0.1 0
29.4 0.1 0
29.7 0.1 0
30 0.1 0
30.3 0.1 0
0 0.2 0
0.3 0.2 0
0.6 0.2 0
0.9 0.2 0
1.2 0.2 0
1.5 0.2 0
1.8 0.2 0
2.1 0.2 0
2.4 0.2 0
2.7 0.2 0
3 0.2 0
3.3 0.2 0
3.6 0.2 0
3.9 0.2 0
4.2 0.2 0
4.5 0.2 0
4.8 0.2 0
5.1 0.2 0
5.4 0.2 0
5.7 0.2 0
6 0.2 0
6.3 0.2 0
6.6 0.2 0
6.9 0.2 0
7.2 0.2 0
7.5 0.2 0
7.8 0.2 0
8.1 0.2 0
8.4 0.2 0
8.7 0.2 0
9 0.2 0
9.3 0.2 0
9.6 0.2 0
9.9 0.2 0
10.2 0.2 0
10.5 0.2 0
10.8 0.2 0
11.1 0.2 0
11.4 0.2 0
11.7 0.2 0
12 0.2 0
12.3 0.2 0
12.6 0.2 0
12.9 0.2 0
13.2 0.2 0
13.5 0.2 0
13.8 0.2 0
14.1 0.2 0
14.4 0.2 0
14.7 0.2 0
15 0.2 0
15.3 0.2 0
15.6 0.2 0
15.9 0.2 0
16.2 0.2 0
16.5 0.2 0
16.8 0.2 0
17.1 0.2 0
17.4 0.2 0
17.7 0.2 0
18 0.2 0
18.3 0.2 0
18.6 0.2 0
18.9 0.2 0
19.2 0.2 0
19.5 0.2 0
19.8 0.2 0
20.1 0.2 0
20.4 0.2 0
20.7 0.2 0
21 0.2 0
21.3 0.2 0
21.6 0.2 0
21.9 0.2 0
22.2 0.2 0
22.5 0.2 0
22.8 0.2 0
23.1 0.2 0
23.4 0.2 0
23.7 0.2 0
24 0.2 0
24.3 0.2 0
24.6 0.2 0
24.9 0.2 0
25.2 0.2 0
25.5 0.2 0
25.8 0.2 0
26.1 0.2 0
26.4 0.2 0
26.7 0.2 0
27 0.2 0
27.3 0.2 0
27.6 0.2 0
27.9 0.2 0
28.2 0.2 0
28.5 0.2 0
28.8 0.2 0
29.1 0.2 0
29.4 0.2 0
29.7 0.2 0
30 0.2 0
30.3 0.2 0
0 0.3 0
0.3 0.3 0
0.6 0.3 0
0.9 0.3 0
1.2 0.3 0
1.5 0.3 0
1.8 0.3 0
2.1 0.3 0
2.4 0.3 0
2.7 0.3 0
3 0.3 0
3.3 0.3 0
3.6 0.3 0
3.9 0.3 0
4.2 0.3 0
4.5 0.3 0
4.8 0.3 0
5.1 0.3 0
5.4 0.3 0
5.7 0.3 0
6 0.3 0
6.3 0.3 0
6.6 0.3 0
6.9 0.3 0
7.2 0.3 0
7.5 0.3 0
7.8 0.3 0
8.1 0.3 0
8.4 0.3 0
8.7 0.3 0
9 0.3 0
9.3 0.3 0
9.6 0.3 0
9.9 0.3 0
10.2 0.3 0
10.5 0.3 0
10.8 0.3 0
11.1 0.3 0
11.4 0.3 0
11.7 0.3 0
12 0.3 0
12.3 0.3 0
12.6 0.3 0
12.9 0.3 0
13.2 0.3 0
13.5 0.3 0
13.8 0.3 0
14.1 0.3 0
14.4 0.3 0
14.7 0.3 0
15 0.3 0
15.3 0.3 0
15.6 0.3 0
15.9 0.3 0
16.2 0.3 0
16.5 0.3 0
16.8 0.3 0
17.1 0.3 0
17.4 0.3 0
17.7 0.3 0
18 0.3 0
18.3 0.3 0
18.6 0.3 0
18.9 0.3 0
19.2 0.3 0
19.5 0.3 0
19.8 0.3 0
20.1 0.3 0
20.4 0.3 0
20.7 0.3 0
21 0.3 0
21.3 0.3 0
21.6 0.3 0
21.9 0.3 0
22.2 0.3 0
22.5 0.3 0
22.8 0.3 0
23.1 0.3 0
23.4 0.3 0
23.7 0.3 0
24 0.3 0
24.3 0.3 0
24.6 0.3 0
24.9 0.3 0
25.2 0.3 0
25.5 0.3 0
25.8 0.3 0
26.1 0.3 0
26.4 0.3 0
26.7 0.3 0
27 0.3 0
27.3 0.3 0
27.6 0.3 0
27.9 0.3 0
28.2 0.3 0
28.5 0.3 0
28.8 0.3 0
29.1 0.3 0
29.4 0.3 0
29.7 0.3 0
30 0.3 0
30.3 0.3 0
0 0.4 0
0.3 0.4 0
0.6 0.4 0
0.9 0.4 0
1.2 0.4 0
1.5 0.4 0
1.8 0.4 0
2.1 0.4 0
2.4 0.4 0
2.7 0.4 0
3 0.4 0
3.3 0.4 0
3.6 0.4 0
3.9 0.4 0
4.2 0.4 0
4.5 0.4 0
4.8 0.4 0
5.1 0.4 0
5.4 0.4 0
5.7 0.4 0
6 0.4 0
6.3 0.4 0
6.6 0.4 0
6.9 0.4 0
7.2 0.4 0
7.5 0.4 0
7.8 0.4 0
8.1 0.4 0
8.4 0.4 0
8.7 0.4 0
9 0.4 0
9.3 0.4 0
9.6 0.4 0
9.9 0.4 0
10.2 0.4 0
10.5 0.4 0
10.8 0.4 0
11.1 0.4 0
11.4 0.4 0
11.7 0.4 0
12 0.4 0
12.3 0.4 0
12.6 0.4 0
12.9 0.4 0
13.2 0.4 0
13.5 0.4 0
13.8 0.4 0
14.1 0.4 0
14.4 0.4 0
14.7 0.4 0
15 0.4 0
15.3 0.4 0
15.6 0.4 0
15.9 0.4 0
16.2 0.4 0
16.5 0.4 0
16.8 0.4 0
17.1 0.4 0
17.4 0.4 0
17.7 0.4 0
18 0.4 0
18.3 0.4 0
18.6 0.4 0
18.9 0.4 0
19.2 0.4 0
19.5 0.4 0
19.8 0.4 0
20.1 0.4 0
20.4 0.4 0
20.7 0.4 0
21 0.4 0
21.3 0.4 0
21.6 0.4 0
21.9 0.4 0
22.2 0.4 0
22.5 0.4 0
22.8 0.4 0
23.1 0.4 0
23.4 0.4 0
23.7 0.4 0
24 0.4 0
24.3 0.4 0
24.6 0.4 0
24.9 0.4 0
25.2 0.4 0
25.5 0.4 0
25.8 0.4 0
26.1 0.4 0
26.4 0.4 0
26.7 0.4 0
27 0.4 0
27.3 0.4 0
27.6 0.4 0
27.9 0.4 0
28.2 0.4 0
28.5 0.4 0
28.8 0.4 0
29.1 0.4 0
29.4 0.4 0
29.7 0.4 0
30 0.4 0
30.3 0.4 0
0 0.5 0
0.3 0.5 0
0.6 0.5 0
0.9 0.5 0
1.2 0.5 0
1.5 0.5 0
1.8 0.5 0
2.1 0.5 0
2.4 0.5 0
2.7 0.5 0
3 0.5 0
3.3 0.5 0
3.6 0.5 0
3.9 0.5 0
4.2 0.5 0
4.5 0.5 0
4.8 0.5 0
5.1 0.5 0
5.4 0.5 0
5.7 0.5 0
6 0.5 0
6.3 0.5 0
6.6 0.5 0
6.9 0.5 0
7.2 0.5 0
7.5 0.5 0
7.8 0.5 0
8.1 0.5 0
8.4 0.5 0
8.7 0.5 0
9 0.5 0
9.3 0.5 0
9.6 0.5 0
9.9 0.5 0
10.2 0.5 0
10.5 0.5 0
10.8 0.5 0
11.1 0.5 0
11.4 0.5 0
11.7 0.5 0
12 0.5 0
12.3 0.5 0
12.6 0.5 0
12.9 0.5 0
13.2 0.5 0
13.5 0.5 0
13.8 0.5 0
14.1 0.5 0
14.4 0.5 0
14.7 0.5 0
15 0.5 0
15.3 0.5 0
15.6 0.5 0
15.9 0.5 0
16.2 0.5 0
16.5 0.5 0
16.8 0.5 0
17.1 0.5 0
17.4 0.5 0
17.7 0.5 0
18 0.5 0
18.3 0.5 0
18.6 0.5 0
18.9 0.5 0
19.2 0.5 0
19.5 0.5 0
19.8 0.5 0
20.1 0.5 0
20.4 0.5 0
20.7 0.5 0
21 0.5 0
21.3 0.5 0
21.6 0.5 0
21.9 0.5 0
22.2 0.5 0
22.5 0.5 0
22.8 0.5 0
23.1 0.5 0
23.4 0.5 0
23.7 0.5 0
24 0.5 0
24.3 0.5 0
24.6 0.5 0
24.9 0.5 0
25.2 0.5 0
25.5 0.5 0
25.8 0.5 0
26.1 0.5 0
26.4 0.5 0
26.7 0.5 0
27 0.5 0
27.3 0.5 0
27.6 0.5 0
27.9 0.5 0
28.2 0.5 0
28.5 0.5 0
28.8 0.5 0
29.1 0.5 0
29.4 0.5 0
29.7 0.5 0
30 0.5 0
30.3 0.5 0
0 0.6 0
0.3 0.6 0
0.6 0.6 0
0.9 0.6 0
1.2 0.6 0
1.5 0.6 0
1.8 0.6 0
2.1 0.6 0
2.4 0.6 0
2.7 0.6 0
3 0.6 0
3.3 0.6 0
3.6 0.6 0
3.9 0.6 0
4.2 0.6 0
4.5 0.6 0
4.8 0.6 0
5.1 0.6 0
5.4 0.6 0
5.7 0.6 0
6 0.6 0
6.3 0.6 0
6.6 0.6 0
6.9 0.6 0
7.2 0.6 0
7.5 0.6 0
7.8 0.6 0
8.1 0.6 0
8.4 0.6 0
8.7 0.6 0
9 0.6 0
9.3 0.6 0
9.6 0.6 0
9.9 0.6 0
10.2 0.6 0
10.5 0.6 0
10.8 0.6 0
11.1 0.6 0
11.4 0.6 0
11.7 0.6 0
12 0.6 0
12.3 0.6 0
12.6 0.6 0
12.9 0.6 0
13.2 0.6 0
13.5 0.6 0
13.8 0.6 0
14.1 0.6 0
14.4 0.6 0
14.7 0.6 0
15 0.6 0
15.3 0.6 0
15.6 0.6 0
15.9 0.6 0
16.2 0.6 0
16.5 0.6 0
16.8 0.6 0
17.1 0.6 0
17.4 0.6 0
17.7 0.6 0
18 0.6 0
18.3 0.6 0
18.6 0.6 0
18.9 0.6 0
19.2 0.6 0
19.5 0.6 0
19.8 0.6 0
20.1 0.6 0
20.4 0.6 0
20.7 0.6 0
21 0.6 0
21.3 0.6 0
21.6 0.6 0
21.9 0.6 0
22.2 0.6 0
22.5 0.6 0
22.8 0.6 0
23.1 0.6 0
23.4 0.6 0
23.7 0.6 0
24 0.6 0
24.3 0.6 0
24.6 0.6 0
24.9 0.6 0
25.2 0.6 0
25.5 0.6 0
25.8 0.6 0
26.1 0.6 0
26.4 0.6 0
26.7 0.6 0
27 0.6 0
27.3 0.6 0
27.6 0.6 0
27.9 0.6 0
28.2 0.6 0
28.5 0.6 0
28.8 0.6 0
29.1 0.6 0
29.4 0.6 0
29.7 0.6 0
30 0.6 0
30.3 0.6 0
0 0.7 0
0.3 0.7 0
0.6 0.7 0
0.9 0.7 0
1.2 0.7 0
1.5 0.7 0
1.8 0.7 0
2.1 0.7 0
2.4 0.7 0
2.7 0.7 0
3 0.7 0
3.3 0.7 0
3.6 0.7 0
3.9 0.7 0
4.2 0.7 0
4.5 0.7 0
4.8 0.7 0
5.1 0.7 0
5.4 0.7 0
5.7 0.7 0
6 0.7 0
6.3 0.7 0
6.6 0.7 0
6.9 0.7 0
7.2 0.7 0
7.5 0.7 0
7.8 0.7 0
8.1 0.7 0
8.4 0.7 0
8.7 0.7 0
9 0.7 0
9.3 0.7 0
9.6 0.7 0
9.9 0.7 0
10.2 0.7 0
10.5 0.7 0
10.8 0.7 0
11.1 0.7 0
11.4 0.7 0
11.7 0.7 0
12 0.7 0
12.3 0.7 0
12.6 0.7 0
12.9 0.7 0
13.2 0.7 0
13.5 0.7 0
13.8 0.7 0
14.1 0.7 0
14.4 0.7 0
14.7 0.7 0
15 0.7 0
15.3 0.7 0
15.6 0.7 0
15.9 0.7 0
16.2 0.7 0
16.5 0.7 0
16.8 0.7 0
17.1 0.7 0
17.4 0.7 0
17.7 0.7 0
18 0.7 0
18.3 0.7 0
18.6 0.7 0
18.9 0.7 0
19.2 0.7 0
19.5 0.7 0
19.8 0.7 0
20.1 0.7 0
20.4 0.7 0
20.7 0.7 0
21 0.7 0
21.3 0.7 0
21.6 0.7 0
21.9 0.7 0
22.2 0.7 0
22.5 0.7 0
22.8 0.7 0
23.1 0.7 0
23.4 0.7 0
23.7 0.7 0
24 0.7 0
24.3 0.7 0
24.6 0.7 0
24.9 0.7 0
25.2 0.7 0
25.5 0.7 0
25.8 0.7 0
26.1 0.7 0
26.4 0.7 0
26.7 0.7 0
27 0.7 0
27.3 0.7 0
27.6 0.7 0
27.9 0.7 0
28.2 0.7 0
28.5 0.7 0
28.8 0.7 0
29.1 0.7 0
29.4 0.7 0
29.7 0.7 0
30 0.7 0
30.3 0.7 0
0 0.8 0
0.3 0.8 0
0.6 0.8 0
0.9 0.8 0
1.2 0.8 0
1.5 0.8 0
1.8 0.8 0
2.1 0.8 0
2.4 0.8 0
2.7 0.8 0
3 0.8 0
3.3 0.8 0
3.6 0.8 0
3.9 0.8 0
4.2 0.8 0
4.5 0.8 0
4.8 0.8 0
5.1 0.8 0
5.4 0.8 0
5.7 0.8 0
6 0.8 0
6.3 0.8 0
6.6 0.8 0
6.9 0.8 0
7.2 0.8 0
7.5 0.8 0
7.8 0.8 0
8.1 0.8 0
8.4 0.8 0
8.7 0.8 0
9 0.8 0
9.3 0.8 0
9.6 0.8 0
9.9 0.8 0
10.2 0.8 0
10.5 0.8 0
10.8 0.8 0
11.1 0.8 0
11.4 0.8 0
11.7 0.8 0
12 0.8 0
12.3 0.8 0
12.6 0.8 0
12.9 0.8 0
13.2 0.8 0
13.5 0.8 0
13.8 0.8 0
14.1 0.8 0
14.4 0.8 0
14.7 0.8 0
15 0.8 0
15.3 0.8 0
15.6 0.8 0
15.9 0.8 0
16.2 0.8 0
16.5 0.8 0
16.8 0.8 0
17.1 0.8 0
17.4 0.8 0
17.7 0.8 0
18 0.8 0
18.3 0.8 0
18.6 0.8 0
18.9 0.8 0
19.2 0.8 0
19.5 0.8 0
19.8 0.8 0
20.1 0.8 0
20.4 0.8 0
20.7 0.8 0
21 0.8 0
21.3 0.8 0
21.6 0.8 0
21.9 0.8 0
22.2 0.8 0
22.5 0.8 0
22.8 0.8 0
23.1 0.8 0
23.4 0.8 0
23.7 0.8 0
24 0.8 0
24.3 0.8 0
24.6 0.8 0
24.9 0.8 0
25.2 0.8 0
25.5 0.8 0
25.8 0.8 0
26.1 0.8 0
26.4 0.8 0
26.7 0.8 0
27 0.8 0
27.3 0.8 0
27.6 0.8 0
27.9 0.8 0
28.2 0.8 0
28.5 0.8 0
28.8 0.8 0
29.1 0.8 0
29.4 0.8 0
29.7 0.8 0
30 0.8 0
30.3 0.8 0
0 0.9 0
0.3 0.9 0
0.6 0.9 0
0.9 0.9 0
1.2 0.9 0
1.5 0.9 0
1.8 0.9 0
2.1 0.9 0
2.4 0.9 0
2.7 0.9 0
3 0.9 0
3.3 0.9 0
3.6 0.9 0
3.9 0.9 0
4.2 0.9 0
4.5 0.9 0
4.8 0.9 0
5.1 0.9 0
5.4 0.9 0
5.7 0.9 0
6 0.9 0
6.3 0.9 0
6.6 0.9 0
6.9 0.9 0
7.2 0.9 0
7.5 0.9 0
7.8 0.9 0
8.1 0.9 0
8.4 0.9 0
8.7 0.9 0
9 0.9 0
9.3 0.9 0
9.6 0.9 0
9.9 0.9 0
10.2 0.9 0
10.5 0.9 0
10.8 0.9 0
11.1 0.9 0
11.4 0.9 0
11.7 0.9 0
12 0.9 0
12.3 0.9 0
12.6 0.9 0
12.9 0.9 0
13.2 0.9 0
13.5 0.9 0
13.8 0.9 0
14.1 0.9 0
14.4 0.9 0
14.7 0.9 0
15 0.9 0
15.3 0.9 0
15.6 0.9 0
15.9 0.9 0
16.2 0.9 0
16.5 0.9 0
16.8 0.9 0
17.1 0.9 0
17.4 0.9 0
17.7 0.9 0
18 0.9 0
18.3 0.9 0
18.6 0.9 0
18.9 0.9 0
19.2 0.9 0
19.5 0.9 0
19.8 0.9 0
20.1 0.9 0
20.4 0.9 0
20.7 0.9 0
21 0.9 0
21.3 0.9 0
21.6 0.9 0
21.9 0.9 0
22.2 0.9 0
22.5 0.9 0
22.8 0.9 0
23.1 0.9 0
23.4 0.9 0
23.7 0.9 0
24 0.9 0
24.3 0.9 0
24.6 0.9 0
24.9 0.9 0
25.2 0.9 0
25.5 0.9 0
25.8 0.9 0
26.1 0.9 0
26.4 0.9 0
26.7 0.9 0
27 0.9 0
27.3 0.9 0
27.6 0.9 0
27.9 0.9 0
28.2 0.9 0
28.5 0.9 0
28.8 0.9 0
29.1 0.9 0
29.4 0.9 0
29.7 0.9 0
30 0.9 0
30.3 0.9 0
0 1 0
0.3 1 0
0.6 1 0
0.9 1 0
1.2 1 0
1.5 1 0
1.8 1 0
2.1 1 0
2.4 1 0
2.7 1 0
3 1 0
3.3 1 0
3.6 1 0
3.9 1 0
4.2 1 0
4.5 1 0
4.8 1 0
5.1 1 0
5.4 1 0
5.7 1 0
6 1 0
6.3 1 0
6.6 1 0
6.9 1 0
7.2 1 0
7.5 1 0
7.8 1 0
8.1 1 0
8.4 1 0
8.7 1 0
9 1 0
9.3 1 0
9.6 1 0
9.9 1 0
10.2 1 0
10.5 1 0
10.8 1 0
11.1 1 0
11.4 1 0
11.7 1 0
12 1 0
12.3 1 0
12.6 1 0
12.9 1 0
13.2 1 0
13.5 1 0
13.8 1 0
14.1 1 0
14.4 1 0
14.7 1 0
15 1 0
15.3 1 0
15.6 1 0
15.9 1 0
16.2 1 0
16.5 1 0
16.8 1 0
17.1 1 0
17.4 1 0
17.7 1 0
18 1 0
18.3 1 0
18.6 1 0
18.9 1 0
19.2 1 0
19.5 1 0
19.8 1 0
20.1 1 0
20.4 1 0
20.7 1 0
21 1 0
21.3 1 0
21.6 1 0
21.9 1 0
22.2 1 0
22.5 1 0
22.8 1 0
23.1 1 0
23.4 1 0
23.7 1 0
24 1 0
24.3 1 0
24.6 1 0
24.9 1 0
25.2 1 0
25.5 1 0
25.8 1 0
26.1 1 0
26.4 1 0
26.7 1 0
27 1 0
27.3 1 0
27.6 1 0
27.9 1 0
28.2 1 0
28.5 1 0
28.8 1 0
29.1 1 0
29.4 1 0
29.7 1 0
30 1 0
30.3 1 0
0 1.1 0
0.3 1.1 0
0.6 1.1 0
0.9 1.1 0
1.2 1.1 0
1.5 1.1 0
1.8 1.1 0
2.1 1.1 0
2.4 1.1 0
2.7 1.1 0
3 1.1 0
3.3 1.1 0
3.6 1.1 0
3.9 1.1 0
4.2 1.1 0
4.5 1.1 0
4.8 1.1 0
5.1 1.1 0
5.4 1.1 0
5.7 1.1 0
6 1.1 0
6.3 1.1 0
6.6 1.1 0
6.9 1.1 0
7.2 1.1 0
7.5 1.1 0
7.8 1.1 0
8.1 1.1 0
8.4 1.1 0
8.7 1.1 0
9 1.1 0
9.3 1.1 0
9.6 1.1 0
9.9 1.1 0
10.2 1.1 0
10.5 1.1 0
10.8 1.1 0
11.1 1.1 0
11.4 1.1 0
11.7 1.1 0
12 1.1 0
12.3 1.1 0
12.6 1.1 0
12.9 1.1 0
13.2 1.1 0
13.5 1.1 0
13.8 1.1 0
14.1 1.1 0
14.4 1.1 0
14.7 1.1 0
15 1.1 0
15.3 1.1 0
15.6 1.1 0
15.9 1.1 0
16.2 1.1 0
16.5 1.1 0
16.8 1.1 0
17.1 1.1 0
17.4 1.1 0
17.7 1.1 0
18 1.1 0
18.3 1.1 0
18.6 1.1 0
18.9 1.1 0
19.2 1.1 0
19.5 1.1 0
19.8 1.1 0
20.1 1.1 0
20.4 1.1 0
20.7 1.1 0
21 1.1 0
21.3 1.1 0
21.6 1.1 0
21.9 1.1 0
22.2 1.1 0
22.5 1.1 0
22.8 1.1 0
23.1 1.1 0
23.4 1.1 0
23.7 1.1 0
24 1.1 0
24.3 1.1 0
24.6 1.1 0
24.9 1.1 0
25.2 1.1 0
25.5 1.1 0
25.8 1.1 0
26.1 1.1 0
26.4 1.1 0
26.7 1.1 0
27 1.1 0
27.3 1.1 0
27.6 1.1 0
27.9 1.1 0
28.2 1.1 0
28.5 1.1 0
28.8 1.1 0
29.1 1.1 0
29.4 1.1 0
29.7 1.1 0
30 1.1 0
30.3 1.1 0

POINT_DATA 1224

SCALARS v double
LOOKUP_TABLE default
0
0
0
0
0
0
0
0
0
0
0
0
0
0
0
0
0
0
0
0
0
0
0
0
0
0
0
0
0
0
0
0
0
0
0
0
0
0
0
0
0
0
0
0
0
0
0
0
0
0
0
0
0
0
0
0
0
0
0
0
0
0
0
0
0
0
0
0
0
0
0
0
0
0
0
0
0
0
0
0
0
0
0
0
0
0
0
0
0
0
0
0
0
0
0
0
0
0
0
0
0
0
-0.0630253
0.0630253
0.0557271
0.0385113
0.0243784
0.0149413
0.00927608
0.00604265
0.00420252
0.0031138
0.00242132
0.00193772
0.00156574
0.00125648
0.000988114
0.000753892
0.00055412
0.000390598
0.000263376
0.000169691
0.000104456
6.1469e-05
3.46167e-05
1.86819e-05
9.67824e-06
4.82295e-06
2.3186e-06
1.08044e-06
4.92543e-07
2.23991e-07
1.05772e-07
5.5523e-08
3.48376e-08
2.65344e-08
2.32266e-08
2.1839e-08
2.11455e-08
2.06862e-08
2.02983e-08
1.99273e-08
1.95561e-08
1.91793e-08
1.87954e-08
1.84031e-08
1.80015e-08
1.75903e-08
1.71697e-08
1.67417e-08
1.63085e-08
1.58726e-08
1.5436e-08
1.49994e-08
1.45631e-08
1.41266e-08
1.36895e-08
1.32517e-08
1.2813e-08
1.23737e-08
1.19341e-08
1.14948e-08
1.10564e-08
1.06195e-08
1.01848e-08
9.75337e-09
9.3258e-09
8.90275e-09
8.4847e-09
8.07194e-09
7.6654e-09
7.26509e-09
6.87008e-09
6.48196e-09
6.10135e-09
5.72873e-09
5.36461e-09
5.00955e-09
4.66411e-09
4.32869e-09
4.00428e-09
3.69139e-09
3.38882e-09
3.0988e-09
2.82193e-09
2.55826e-09
2.30777e-09
2.07013e-09
1.84679e-09
1.63134e-09
1.44761e-09
1.19523e-09
1.23255e-09
1.30934e-10
2.08488e-09
-9.64285e-09
1.15309e-08
-1.405e-07
6.6067e-08
-1.79162e-06
-1.03807e-06
-8.58669e-06
-2.85609e-05
-2.85609e-05
-0.051614
0.051614
0.0605197
0.0485981
0.0351318
0.0247325
0.0176648
0.0130536
0.0100162
0.00793445
0.00642543
0.00525922
0.00429937
0.00346994
0.00273644
0.00209103
0.00153871
0.00108586
0.000733052
0.000472859
0.000291379
0.000171592
9.66557e-05
5.21381e-05
2.69698e-05
1.33989e-05
6.40486e-06
2.95264e-06
1.3176e-06
5.73356e-07
2.47317e-07
1.09697e-07
5.36682e-08
3.16327e-08
2.32255e-08
2.00267e-08
1.87064e-08
1.80239e-08
1.75431e-08
1.71189e-08
1.67057e-08
1.62894e-08
1.58649e-08
1.54287e-08
1.49772e-08
1.4508e-08
1.40214e-08
1.35205e-08
1.30113e-08
1.25002e-08
1.19927e-08
1.14917e-08
1.09977e-08
1.05097e-08
1.00262e-08
9.54569e-09
9.06734e-09
8.59075e-09
8.11595e-09
7.64324e-09
7.17316e-09
6.70657e-09
6.24464e-09
5.78863e-09
5.33976e-09
4.89891e-09
4.46655e-09
4.04269e-09
3.62816e-09
3.22237e-09
2.82376e-09
2.43457e-09
2.05508e-09
1.68553e-09
1.32642e-09
9.78401e-10
6.42122e-10
3.17974e-10
1.44611e-12
-3.108e-10
-6.0111e-10
-8.71247e-10
-1.12288e-09
-1.35843e-09
-1.57931e-09
-1.78674e-09
-1.9798e-09
-2.16771e-09
-2.32367e-09
-2.57954e-09
-2.50456e-09
-4.11464e-09
-1.06103e-09
-2.21294e-08
1.65273e-08
-2.72177e-07
1.33736e-07
-3.71027e-06
-9.10294e-07
-4.58938e-05
-7.99388e-05
-7.99388e-05
-0.031689
0.031689
0.0439855
0.0385945
0.0299835
0.0226201
0.0172753
0.0135715
0.0109732
0.00907122
0.00759911
0.0063895
0.00533935
0.00439144
0.00352367
0.00273833
0.00204963
0.00147199
0.0010119
0.000665036
0.000417698
0.000250785
0.000144034
7.92105e-05
4.17606e-05
2.11341e-05
1.02814e-05
4.81582e-06
2.17661e-06
9.52759e-07
4.07062e-07
1.72878e-07
7.6099e-08
3.75827e-08
2.28289e-08
1.73115e-08
1.51864e-08
1.42405e-08
1.36814e-08
1.324e-08
1.28293e-08
1.2422e-08
1.20081e-08
1.15812e-08
1.11355e-08
1.06666e-08
1.01734e-08
9.65957e-09
9.1327e-09
8.60219e-09
8.07644e-09
7.56099e-09
7.05812e-09
6.56754e-09
6.08768e-09
5.61675e-09
5.15329e-09
4.69638e-09
4.24548e-09
3.80038e-09
3.36116e-09
2.92834e-09
2.50284e-09
2.08594e-09
1.67895e-09
1.28295e-09
8.98493e-10
5.26107e-10
1.60672e-10
-2.00873e-10
-5.41556e-10
-8.6611e-10
-1.17767e-09
-1.47725e-09
-1.76475e-09
-2.0397e-09
-2.30158e-09
-2.55013e-09
-2.78469e-09
-3.00398e-09
-3.20837e-09
-3.39674e-09
-3.5696e-09
-3.72774e-09
-3.8716e-09
-4.00252e-09
-4.11953e-09
-4.2347e-09
-4.31573e-09
-4.52097e-09
-4.34311e-09
-6.07464e-09
-2.41422e-09
-2.5846e-08
2.14439e-08
-3.06178e-07
2.43392e-07
-4.37012e-06
8.15265e-07
-6.7688e-05
-0.000103375
-0.000103375
-0.0146343
0.0146343
0.0221781
0.0203997
0.0164657
0.0128761
0.0101762
0.00824981
0.00685769
0.00580509
0.0049616
0.00424366
0.00359927
0.00300039
0.00243855
0.00191942
0.00145572
0.00106001
0.000739424
0.000493519
0.000315044
0.000192389
0.000112463
6.29888e-05
3.38404e-05
1.74617e-05
8.66619e-06
4.14357e-06
1.9128e-06
8.55631e-07
3.73626e-07
1.61964e-07
7.23963e-08
3.58859e-08
2.16043e-08
1.61679e-08
1.40389e-08
1.30834e-08
1.25239e-08
1.20911e-08
1.16952e-08
1.13066e-08
1.09134e-08
1.05079e-08
1.00828e-08
9.63233e-09
9.15425e-09
8.65139e-09
8.13134e-09
7.60424e-09
7.0799e-09
6.56571e-09
6.06577e-09
5.58142e-09
5.11231e-09
4.65736e-09
4.21542e-09
3.78551e-09
3.36679e-09
2.95851e-09
2.56013e-09
2.17143e-09
1.79266e-09
1.4245e-09
1.0679e-09
7.23836e-10
3.93025e-10
7.50675e-11
-2.32126e-10
-5.22383e-10
-7.982e-10
-1.0592e-09
-1.30597e-09
-1.539e-09
-1.75833e-09
-1.96368e-09
-2.15469e-09
-2.33109e-09
-2.49219e-09
-2.6367e-09
-2.7653e-09
-2.87771e-09
-2.97444e-09
-3.05613e-09
-3.12324e-09
-3.17725e-09
-3.21806e-09
-3.25573e-09
-3.26761e-09
-3.37014e-09
-3.19727e-09
-4.36168e-09
-1.64955e-09
-1.76752e-08
1.76375e-08
-2.06639e-07
2.19599e-07
-2.97408e-06
1.33576e-06
-4.88521e-05
-7.21991e-05
-7.21991e-05
-2.00368e-08
2.00368e-08
4.51023e-08
5.76032e-08
6.26332e-08
6.36438e-08
6.25478e-08
5.99849e-08
5.58015e-08
4.96578e-08
4.15955e-08
3.23496e-08
2.32027e-08
1.54102e-08
9.57805e-09
5.48133e-09
2.46587e-09
6.59056e-11
-1.6729e-09
-2.36145e-09
-1.69371e-09
2.77628e-10
3.1833e-09
6.51317e-09
9.73868e-09
1.24069e-08
1.4255e-08
1.52753e-08
1.56566e-08
1.56515e-08
1.54668e-08
1.52341e-08
1.5056e-08
1.49643e-08
1.50065e-08
1.49974e-08
1.48384e-08
1.45684e-08
1.42388e-08
1.38825e-08
1.35151e-08
1.31414e-08
1.27603e-08
1.23671e-08
1.19551e-08
1.15182e-08
1.10533e-08
1.05623e-08
1.00517e-08
9.5311e-09
9.01042e-09
8.49781e-09
7.99872e-09
7.51599e-09
7.05064e-09
6.60265e-09
6.1715e-09
5.7564e-09
5.3564e-09
4.97041e-09
4.59731e-09
4.23617e-09
3.88645e-09
3.54813e-09
3.22165e-09
2.90779e-09
2.60739e-09
2.32107e-09
2.05054e-09
1.79603e-09
1.55616e-09
1.33135e-09
1.12171e-09
9.27259e-10
7.481e-10
5.8442e-10
4.36461e-10
3.04449e-10
1.88911e-10
9.06768e-11
9.35085e-12
-5.50729e-11
-1.03093e-10
-1.3532e-10
-1.52474e-10
-1.55733e-10
-1.46934e-10
-1.28737e-10
-1.05444e-10
-8.05527e-11
-6.84549e-11
-5.78302e-11
-8.90397e-11
-1.12139e-10
-1.1793e-10
-5.04064e-11
1.00611e-10
3.81407e-10
6.75142e-10
8.31014e-10
9.87508e-10
9.87508e-10
0.0146343
-0.0146343
-0.022178
-0.0203996
-0.0164656
-0.012876
-0.0101761
-0.0082497
-0.00685758
-0.00580499
-0.00496152
-0.00424359
-0.00359922
-0.00300036
-0.00243853
-0.00191941
-0.00145571
-0.00106001
-0.000739424
-0.00049352
-0.000315043
-0.000192384
-0.000112453
-6.29721e-05
-3.38178e-05
-1.74342e-05
-8.63554e-06
-4.11125e-06
-1.87997e-06
-8.22976e-07
-3.41455e-07
-1.30322e-07
-4.1079e-08
-4.60717e-09
9.66507e-09
1.48241e-08
1.64574e-08
1.67861e-08
1.66517e-08
1.63602e-08
1.60181e-08
1.5659e-08
1.52906e-08
1.49112e-08
1.45152e-08
1.40969e-08
1.36529e-08
1.31844e-08
1.26968e-08
1.21987e-08
1.16995e-08
1.12074e-08
1.0728e-08
1.02649e-08
9.81969e-09
9.39265e-09
8.9835e-09
8.59152e-09
8.21567e-09
7.85467e-09
7.50709e-09
7.17158e-09
6.84714e-09
6.5333e-09
6.23027e-09
5.93878e-09
5.65988e-09
5.39472e-09
5.14513e-09
4.9115e-09
4.69317e-09
4.49046e-09
4.30355e-09
4.13251e-09
3.97741e-09
3.83834e-09
3.71545e-09
3.60892e-09
3.51912e-09
3.44657e-09
3.39099e-09
3.35226e-09
3.32992e-09
3.3234e-09
3.33183e-09
3.35449e-09
3.38779e-09
3.43685e-09
3.47049e-09
3.60008e-09
3.42739e-09
4.59635e-09
1.80415e-09
1.77505e-08
-1.75691e-08
2.06789e-07
-2.19114e-07
2.97509e-06
-1.33419e-06
4.8854e-05
7.22012e-05
7.22012e-05
0.0316889
-0.0316889
-0.0439854
-0.0385944
-0.0299834
-0.02262
-0.0172752
-0.0135714
-0.0109731
-0.00907114
-0.00759904
-0.00638945
-0.00533931
-0.0043914
-0.00352365
-0.00273831
-0.00204962
-0.00147198
-0.00101189
-0.000665025
-0.000417684
-0.000250768
-0.000144012
-7.91839e-05
-4.17297e-05
-2.11e-05
-1.02453e-05
-4.77895e-06
-2.13982e-06
-9.16509e-07
-3.71525e-07
-1.38016e-07
-4.15775e-08
-3.02271e-09
1.13808e-08
1.6186e-08
1.75676e-08
1.77839e-08
1.7618e-08
1.73318e-08
1.70094e-08
1.66755e-08
1.63353e-08
1.59866e-08
1.56249e-08
1.52453e-08
1.48449e-08
1.44248e-08
1.39897e-08
1.35473e-08
1.31055e-08
1.26712e-08
1.22491e-08
1.1842e-08
1.14505e-08
1.10748e-08
1.07142e-08
1.03681e-08
1.00355e-08
9.71518e-09
9.4059e-09
9.1064e-09
8.81573e-09
8.53353e-09
8.26012e-09
7.99637e-09
7.74353e-09
7.50291e-09
7.27609e-09
7.06359e-09
6.86511e-09
6.68091e-09
6.51115e-09
6.35589e-09
6.21521e-09
6.08923e-09
5.97808e-09
5.88196e-09
5.80115e-09
5.73597e-09
5.68627e-09
5.65192e-09
5.63254e-09
5.62771e-09
5.63665e-09
5.65897e-09
5.69081e-09
5.74061e-09
5.76782e-09
5.93225e-09
5.68387e-09
7.37492e-09
3.57331e-09
2.69017e-08
-2.04559e-08
3.07225e-07
-2.42122e-07
4.37182e-06
-8.13088e-07
6.76903e-05
0.000103377
0.000103377
0.0516139
-0.0516139
-0.0605196
-0.048598
-0.0351317
-0.0247324
-0.0176648
-0.0130536
-0.0100161
-0.00793438
-0.00642538
-0.00525917
-0.00429933
-0.0034699
-0.00273641
-0.002091
-0.00153868
-0.00108583
-0.000733025
-0.00047283
-0.000291349
-0.00017156
-9.66202e-05
-5.21001e-05
-2.69298e-05
-1.33575e-05
-6.36287e-06
-2.91068e-06
-1.27612e-06
-5.32517e-07
-2.07166e-07
-7.02166e-08
-1.44319e-08
7.2832e-09
1.46324e-08
1.691e-08
1.74462e-08
1.74088e-08
1.71879e-08
1.69095e-08
1.66131e-08
1.63099e-08
1.60019e-08
1.56876e-08
1.53639e-08
1.50279e-08
1.46782e-08
1.43163e-08
1.39459e-08
1.35726e-08
1.32016e-08
1.28368e-08
1.24807e-08
1.21342e-08
1.17973e-08
1.14697e-08
1.1151e-08
1.08407e-08
1.05385e-08
1.02437e-08
9.95569e-09
9.67379e-09
9.39762e-09
9.12724e-09
8.86318e-09
8.60635e-09
8.3578e-09
8.11857e-09
7.88975e-09
7.6717e-09
7.46435e-09
7.26796e-09
7.08274e-09
6.9089e-09
6.74662e-09
6.59614e-09
6.4577e-09
6.33151e-09
6.21789e-09
6.11711e-09
6.02916e-09
5.95405e-09
5.89163e-09
5.84172e-09
5.80385e-09
5.77797e-09
5.76124e-09
5.76129e-09
5.74464e-09
5.85141e-09
5.60771e-09
7.09462e-09
3.85471e-09
2.4734e-08
-1.40266e-08
2.74642e-07
-1.31167e-07
3.71309e-06
9.13385e-07
4.58971e-05
7.99419e-05
7.99419e-05
0.0630252
-0.0630252
-0.0557271
-0.0385112
-0.0243783
-0.0149412
-0.00927602
-0.00604259
-0.00420247
-0.00311374
-0.00242127
-0.00193767
-0.00156569
-0.00125643
-0.00098807
-0.000753848
-0.000554077
-0.000390555
-0.000263333
-0.000169647
-0.000104412
-6.14241e-05
-3.45712e-05
-1.86361e-05
-9.6322e-06
-4.77689e-06
-2.27273e-06
-1.03493e-06
-4.47454e-07
-1.79284e-07
-6.12888e-08
-1.09403e-08
8.96738e-09
1.57212e-08
1.80473e-08
1.86726e-08
1.86832e-08
1.84852e-08
1.8217e-08
1.79237e-08
1.76196e-08
1.73092e-08
1.69934e-08
1.66719e-08
1.6344e-08
1.60089e-08
1.5667e-08
1.53192e-08
1.49672e-08
1.46129e-08
1.42581e-08
1.3904e-08
1.35511e-08
1.31999e-08
1.28504e-08
1.25027e-08
1.2157e-08
1.18136e-08
1.14726e-08
1.11342e-08
1.07984e-08
1.04654e-08
1.01354e-08
9.80874e-09
9.486e-09
9.16778e-09
8.85471e-09
8.54745e-09
8.24665e-09
7.95274e-09
7.66595e-09
7.3867e-09
7.11543e-09
6.85252e-09
6.59835e-09
6.35331e-09
6.11779e-09
5.89213e-09
5.67674e-09
5.47199e-09
5.27814e-09
5.09544e-09
4.92406e-09
4.76419e-09
4.61587e-09
4.47936e-09
4.35357e-09
4.24289e-09
4.13028e-09
4.09066e-09
3.87105e-09
4.58744e-09
2.7538e-09
1.38494e-08
-7.21237e-09
1.44581e-07
-6.207e-08
1.79563e-06
1.0421e-06
8.59096e-06
2.8565e-05
2.8565e-05
0
0
0
0
0
0
0
0
0
0
0
0
0
0
0
0
0
0
0
0
0
0
0
0
0
0
0
0
0
0
0
0
0
0
0
0
0
0
0
0
0
0
0
0
0
0
0
0
0
0
0
0
0
0
0
0
0
0
0
0
0
0
0
0
0
0
0
0
0
0
0
0
0
0
0
0
0
0
0
0
0
0
0
0
0
0
0
0
0
0
0
0
0
0
0
0
0
0
0
0
0
0
0
0
0
0
0
0
0
0
0
0
0
0
0
0
0
0
0
0
0
0
0
0
0
0
0
0
0
0
0
0
0
0
0
0
0
0
0
0
0
0
0
0
0
0
0
0
0
0
0
0
0
0
0
0
0
0
0
0
0
0
0
0
0
0
0
0
0
0
0
0
0
0
0
0
0
0
0
0
0
0
0
0
0
0
0
0
0
0
0
0
0
0
0
0
0
0
0
0
0
0
0
0
