# vtk DataFile Version 2.0
FlowField
ASCII
DATASET STRUCTURED_GRID
DIMENSIONS 102 13 1 
POINTS 1326 double
0 0 0
0.3 0 0
0.6 0 0
0.9 0 0
1.2 0 0
1.5 0 0
1.8 0 0
2.1 0 0
2.4 0 0
2.7 0 0
3 0 0
3.3 0 0
3.6 0 0
3.9 0 0
4.2 0 0
4.5 0 0
4.8 0 0
5.1 0 0
5.4 0 0
5.7 0 0
6 0 0
6.3 0 0
6.6 0 0
6.9 0 0
7.2 0 0
7.5 0 0
7.8 0 0
8.1 0 0
8.4 0 0
8.7 0 0
9 0 0
9.3 0 0
9.6 0 0
9.9 0 0
10.2 0 0
10.5 0 0
10.8 0 0
11.1 0 0
11.4 0 0
11.7 0 0
12 0 0
12.3 0 0
12.6 0 0
12.9 0 0
13.2 0 0
13.5 0 0
13.8 0 0
14.1 0 0
14.4 0 0
14.7 0 0
15 0 0
15.3 0 0
15.6 0 0
15.9 0 0
16.2 0 0
16.5 0 0
16.8 0 0
17.1 0 0
17.4 0 0
17.7 0 0
18 0 0
18.3 0 0
18.6 0 0
18.9 0 0
19.2 0 0
19.5 0 0
19.8 0 0
20.1 0 0
20.4 0 0
20.7 0 0
21 0 0
21.3 0 0
21.6 0 0
21.9 0 0
22.2 0 0
22.5 0 0
22.8 0 0
23.1 0 0
23.4 0 0
23.7 0 0
24 0 0
24.3 0 0
24.6 0 0
24.9 0 0
25.2 0 0
25.5 0 0
25.8 0 0
26.1 0 0
26.4 0 0
26.7 0 0
27 0 0
27.3 0 0
27.6 0 0
27.9 0 0
28.2 0 0
28.5 0 0
28.8 0 0
29.1 0 0
29.4 0 0
29.7 0 0
30 0 0
30.3 0 0
0 0.1 0
0.3 0.1 0
0.6 0.1 0
0.9 0.1 0
1.2 0.1 0
1.5 0.1 0
1.8 0.1 0
2.1 0.1 0
2.4 0.1 0
2.7 0.1 0
3 0.1 0
3.3 0.1 0
3.6 0.1 0
3.9 0.1 0
4.2 0.1 0
4.5 0.1 0
4.8 0.1 0
5.1 0.1 0
5.4 0.1 0
5.7 0.1 0
6 0.1 0
6.3 0.1 0
6.6 0.1 0
6.9 0.1 0
7.2 0.1 0
7.5 0.1 0
7.8 0.1 0
8.1 0.1 0
8.4 0.1 0
8.7 0.1 0
9 0.1 0
9.3 0.1 0
9.6 0.1 0
9.9 0.1 0
10.2 0.1 0
10.5 0.1 0
10.8 0.1 0
11.1 0.1 0
11.4 0.1 0
11.7 0.1 0
12 0.1 0
12.3 0.1 0
12.6 0.1 0
12.9 0.1 0
13.2 0.1 0
13.5 0.1 0
13.8 0.1 0
14.1 0.1 0
14.4 0.1 0
14.7 0.1 0
15 0.1 0
15.3 0.1 0
15.6 0.1 0
15.9 0.1 0
16.2 0.1 0
16.5 0.1 0
16.8 0.1 0
17.1 0.1 0
17.4 0.1 0
17.7 0.1 0
18 0.1 0
18.3 0.1 0
18.6 0.1 0
18.9 0.1 0
19.2 0.1 0
19.5 0.1 0
19.8 0.1 0
20.1 0.1 0
20.4 0.1 0
20.7 0.1 0
21 0.1 0
21.3 0.1 0
21.6 0.1 0
21.9 0.1 0
22.2 0.1 0
22.5 0.1 0
22.8 0.1 0
23.1 0.1 0
23.4 0.1 0
23.7 0.1 0
24 0.1 0
24.3 0.1 0
24.6 0.1 0
24.9 0.1 0
25.2 0.1 0
25.5 0.1 0
25.8 0.1 0
26.1 0.1 0
26.4 0.1 0
26.7 0.1 0
27 0.1 0
27.3 0.1 0
27.6 0.1 0
27.9 0.1 0
28.2 0.1 0
28.5 0.1 0
28.8 0.1 0
29.1 0.1 0
29.4 0.1 0
29.7 0.1 0
30 0.1 0
30.3 0.1 0
0 0.2 0
0.3 0.2 0
0.6 0.2 0
0.9 0.2 0
1.2 0.2 0
1.5 0.2 0
1.8 0.2 0
2.1 0.2 0
2.4 0.2 0
2.7 0.2 0
3 0.2 0
3.3 0.2 0
3.6 0.2 0
3.9 0.2 0
4.2 0.2 0
4.5 0.2 0
4.8 0.2 0
5.1 0.2 0
5.4 0.2 0
5.7 0.2 0
6 0.2 0
6.3 0.2 0
6.6 0.2 0
6.9 0.2 0
7.2 0.2 0
7.5 0.2 0
7.8 0.2 0
8.1 0.2 0
8.4 0.2 0
8.7 0.2 0
9 0.2 0
9.3 0.2 0
9.6 0.2 0
9.9 0.2 0
10.2 0.2 0
10.5 0.2 0
10.8 0.2 0
11.1 0.2 0
11.4 0.2 0
11.7 0.2 0
12 0.2 0
12.3 0.2 0
12.6 0.2 0
12.9 0.2 0
13.2 0.2 0
13.5 0.2 0
13.8 0.2 0
14.1 0.2 0
14.4 0.2 0
14.7 0.2 0
15 0.2 0
15.3 0.2 0
15.6 0.2 0
15.9 0.2 0
16.2 0.2 0
16.5 0.2 0
16.8 0.2 0
17.1 0.2 0
17.4 0.2 0
17.7 0.2 0
18 0.2 0
18.3 0.2 0
18.6 0.2 0
18.9 0.2 0
19.2 0.2 0
19.5 0.2 0
19.8 0.2 0
20.1 0.2 0
20.4 0.2 0
20.7 0.2 0
21 0.2 0
21.3 0.2 0
21.6 0.2 0
21.9 0.2 0
22.2 0.2 0
22.5 0.2 0
22.8 0.2 0
23.1 0.2 0
23.4 0.2 0
23.7 0.2 0
24 0.2 0
24.3 0.2 0
24.6 0.2 0
24.9 0.2 0
25.2 0.2 0
25.5 0.2 0
25.8 0.2 0
26.1 0.2 0
26.4 0.2 0
26.7 0.2 0
27 0.2 0
27.3 0.2 0
27.6 0.2 0
27.9 0.2 0
28.2 0.2 0
28.5 0.2 0
28.8 0.2 0
29.1 0.2 0
29.4 0.2 0
29.7 0.2 0
30 0.2 0
30.3 0.2 0
0 0.3 0
0.3 0.3 0
0.6 0.3 0
0.9 0.3 0
1.2 0.3 0
1.5 0.3 0
1.8 0.3 0
2.1 0.3 0
2.4 0.3 0
2.7 0.3 0
3 0.3 0
3.3 0.3 0
3.6 0.3 0
3.9 0.3 0
4.2 0.3 0
4.5 0.3 0
4.8 0.3 0
5.1 0.3 0
5.4 0.3 0
5.7 0.3 0
6 0.3 0
6.3 0.3 0
6.6 0.3 0
6.9 0.3 0
7.2 0.3 0
7.5 0.3 0
7.8 0.3 0
8.1 0.3 0
8.4 0.3 0
8.7 0.3 0
9 0.3 0
9.3 0.3 0
9.6 0.3 0
9.9 0.3 0
10.2 0.3 0
10.5 0.3 0
10.8 0.3 0
11.1 0.3 0
11.4 0.3 0
11.7 0.3 0
12 0.3 0
12.3 0.3 0
12.6 0.3 0
12.9 0.3 0
13.2 0.3 0
13.5 0.3 0
13.8 0.3 0
14.1 0.3 0
14.4 0.3 0
14.7 0.3 0
15 0.3 0
15.3 0.3 0
15.6 0.3 0
15.9 0.3 0
16.2 0.3 0
16.5 0.3 0
16.8 0.3 0
17.1 0.3 0
17.4 0.3 0
17.7 0.3 0
18 0.3 0
18.3 0.3 0
18.6 0.3 0
18.9 0.3 0
19.2 0.3 0
19.5 0.3 0
19.8 0.3 0
20.1 0.3 0
20.4 0.3 0
20.7 0.3 0
21 0.3 0
21.3 0.3 0
21.6 0.3 0
21.9 0.3 0
22.2 0.3 0
22.5 0.3 0
22.8 0.3 0
23.1 0.3 0
23.4 0.3 0
23.7 0.3 0
24 0.3 0
24.3 0.3 0
24.6 0.3 0
24.9 0.3 0
25.2 0.3 0
25.5 0.3 0
25.8 0.3 0
26.1 0.3 0
26.4 0.3 0
26.7 0.3 0
27 0.3 0
27.3 0.3 0
27.6 0.3 0
27.9 0.3 0
28.2 0.3 0
28.5 0.3 0
28.8 0.3 0
29.1 0.3 0
29.4 0.3 0
29.7 0.3 0
30 0.3 0
30.3 0.3 0
0 0.4 0
0.3 0.4 0
0.6 0.4 0
0.9 0.4 0
1.2 0.4 0
1.5 0.4 0
1.8 0.4 0
2.1 0.4 0
2.4 0.4 0
2.7 0.4 0
3 0.4 0
3.3 0.4 0
3.6 0.4 0
3.9 0.4 0
4.2 0.4 0
4.5 0.4 0
4.8 0.4 0
5.1 0.4 0
5.4 0.4 0
5.7 0.4 0
6 0.4 0
6.3 0.4 0
6.6 0.4 0
6.9 0.4 0
7.2 0.4 0
7.5 0.4 0
7.8 0.4 0
8.1 0.4 0
8.4 0.4 0
8.7 0.4 0
9 0.4 0
9.3 0.4 0
9.6 0.4 0
9.9 0.4 0
10.2 0.4 0
10.5 0.4 0
10.8 0.4 0
11.1 0.4 0
11.4 0.4 0
11.7 0.4 0
12 0.4 0
12.3 0.4 0
12.6 0.4 0
12.9 0.4 0
13.2 0.4 0
13.5 0.4 0
13.8 0.4 0
14.1 0.4 0
14.4 0.4 0
14.7 0.4 0
15 0.4 0
15.3 0.4 0
15.6 0.4 0
15.9 0.4 0
16.2 0.4 0
16.5 0.4 0
16.8 0.4 0
17.1 0.4 0
17.4 0.4 0
17.7 0.4 0
18 0.4 0
18.3 0.4 0
18.6 0.4 0
18.9 0.4 0
19.2 0.4 0
19.5 0.4 0
19.8 0.4 0
20.1 0.4 0
20.4 0.4 0
20.7 0.4 0
21 0.4 0
21.3 0.4 0
21.6 0.4 0
21.9 0.4 0
22.2 0.4 0
22.5 0.4 0
22.8 0.4 0
23.1 0.4 0
23.4 0.4 0
23.7 0.4 0
24 0.4 0
24.3 0.4 0
24.6 0.4 0
24.9 0.4 0
25.2 0.4 0
25.5 0.4 0
25.8 0.4 0
26.1 0.4 0
26.4 0.4 0
26.7 0.4 0
27 0.4 0
27.3 0.4 0
27.6 0.4 0
27.9 0.4 0
28.2 0.4 0
28.5 0.4 0
28.8 0.4 0
29.1 0.4 0
29.4 0.4 0
29.7 0.4 0
30 0.4 0
30.3 0.4 0
0 0.5 0
0.3 0.5 0
0.6 0.5 0
0.9 0.5 0
1.2 0.5 0
1.5 0.5 0
1.8 0.5 0
2.1 0.5 0
2.4 0.5 0
2.7 0.5 0
3 0.5 0
3.3 0.5 0
3.6 0.5 0
3.9 0.5 0
4.2 0.5 0
4.5 0.5 0
4.8 0.5 0
5.1 0.5 0
5.4 0.5 0
5.7 0.5 0
6 0.5 0
6.3 0.5 0
6.6 0.5 0
6.9 0.5 0
7.2 0.5 0
7.5 0.5 0
7.8 0.5 0
8.1 0.5 0
8.4 0.5 0
8.7 0.5 0
9 0.5 0
9.3 0.5 0
9.6 0.5 0
9.9 0.5 0
10.2 0.5 0
10.5 0.5 0
10.8 0.5 0
11.1 0.5 0
11.4 0.5 0
11.7 0.5 0
12 0.5 0
12.3 0.5 0
12.6 0.5 0
12.9 0.5 0
13.2 0.5 0
13.5 0.5 0
13.8 0.5 0
14.1 0.5 0
14.4 0.5 0
14.7 0.5 0
15 0.5 0
15.3 0.5 0
15.6 0.5 0
15.9 0.5 0
16.2 0.5 0
16.5 0.5 0
16.8 0.5 0
17.1 0.5 0
17.4 0.5 0
17.7 0.5 0
18 0.5 0
18.3 0.5 0
18.6 0.5 0
18.9 0.5 0
19.2 0.5 0
19.5 0.5 0
19.8 0.5 0
20.1 0.5 0
20.4 0.5 0
20.7 0.5 0
21 0.5 0
21.3 0.5 0
21.6 0.5 0
21.9 0.5 0
22.2 0.5 0
22.5 0.5 0
22.8 0.5 0
23.1 0.5 0
23.4 0.5 0
23.7 0.5 0
24 0.5 0
24.3 0.5 0
24.6 0.5 0
24.9 0.5 0
25.2 0.5 0
25.5 0.5 0
25.8 0.5 0
26.1 0.5 0
26.4 0.5 0
26.7 0.5 0
27 0.5 0
27.3 0.5 0
27.6 0.5 0
27.9 0.5 0
28.2 0.5 0
28.5 0.5 0
28.8 0.5 0
29.1 0.5 0
29.4 0.5 0
29.7 0.5 0
30 0.5 0
30.3 0.5 0
0 0.6 0
0.3 0.6 0
0.6 0.6 0
0.9 0.6 0
1.2 0.6 0
1.5 0.6 0
1.8 0.6 0
2.1 0.6 0
2.4 0.6 0
2.7 0.6 0
3 0.6 0
3.3 0.6 0
3.6 0.6 0
3.9 0.6 0
4.2 0.6 0
4.5 0.6 0
4.8 0.6 0
5.1 0.6 0
5.4 0.6 0
5.7 0.6 0
6 0.6 0
6.3 0.6 0
6.6 0.6 0
6.9 0.6 0
7.2 0.6 0
7.5 0.6 0
7.8 0.6 0
8.1 0.6 0
8.4 0.6 0
8.7 0.6 0
9 0.6 0
9.3 0.6 0
9.6 0.6 0
9.9 0.6 0
10.2 0.6 0
10.5 0.6 0
10.8 0.6 0
11.1 0.6 0
11.4 0.6 0
11.7 0.6 0
12 0.6 0
12.3 0.6 0
12.6 0.6 0
12.9 0.6 0
13.2 0.6 0
13.5 0.6 0
13.8 0.6 0
14.1 0.6 0
14.4 0.6 0
14.7 0.6 0
15 0.6 0
15.3 0.6 0
15.6 0.6 0
15.9 0.6 0
16.2 0.6 0
16.5 0.6 0
16.8 0.6 0
17.1 0.6 0
17.4 0.6 0
17.7 0.6 0
18 0.6 0
18.3 0.6 0
18.6 0.6 0
18.9 0.6 0
19.2 0.6 0
19.5 0.6 0
19.8 0.6 0
20.1 0.6 0
20.4 0.6 0
20.7 0.6 0
21 0.6 0
21.3 0.6 0
21.6 0.6 0
21.9 0.6 0
22.2 0.6 0
22.5 0.6 0
22.8 0.6 0
23.1 0.6 0
23.4 0.6 0
23.7 0.6 0
24 0.6 0
24.3 0.6 0
24.6 0.6 0
24.9 0.6 0
25.2 0.6 0
25.5 0.6 0
25.8 0.6 0
26.1 0.6 0
26.4 0.6 0
26.7 0.6 0
27 0.6 0
27.3 0.6 0
27.6 0.6 0
27.9 0.6 0
28.2 0.6 0
28.5 0.6 0
28.8 0.6 0
29.1 0.6 0
29.4 0.6 0
29.7 0.6 0
30 0.6 0
30.3 0.6 0
0 0.7 0
0.3 0.7 0
0.6 0.7 0
0.9 0.7 0
1.2 0.7 0
1.5 0.7 0
1.8 0.7 0
2.1 0.7 0
2.4 0.7 0
2.7 0.7 0
3 0.7 0
3.3 0.7 0
3.6 0.7 0
3.9 0.7 0
4.2 0.7 0
4.5 0.7 0
4.8 0.7 0
5.1 0.7 0
5.4 0.7 0
5.7 0.7 0
6 0.7 0
6.3 0.7 0
6.6 0.7 0
6.9 0.7 0
7.2 0.7 0
7.5 0.7 0
7.8 0.7 0
8.1 0.7 0
8.4 0.7 0
8.7 0.7 0
9 0.7 0
9.3 0.7 0
9.6 0.7 0
9.9 0.7 0
10.2 0.7 0
10.5 0.7 0
10.8 0.7 0
11.1 0.7 0
11.4 0.7 0
11.7 0.7 0
12 0.7 0
12.3 0.7 0
12.6 0.7 0
12.9 0.7 0
13.2 0.7 0
13.5 0.7 0
13.8 0.7 0
14.1 0.7 0
14.4 0.7 0
14.7 0.7 0
15 0.7 0
15.3 0.7 0
15.6 0.7 0
15.9 0.7 0
16.2 0.7 0
16.5 0.7 0
16.8 0.7 0
17.1 0.7 0
17.4 0.7 0
17.7 0.7 0
18 0.7 0
18.3 0.7 0
18.6 0.7 0
18.9 0.7 0
19.2 0.7 0
19.5 0.7 0
19.8 0.7 0
20.1 0.7 0
20.4 0.7 0
20.7 0.7 0
21 0.7 0
21.3 0.7 0
21.6 0.7 0
21.9 0.7 0
22.2 0.7 0
22.5 0.7 0
22.8 0.7 0
23.1 0.7 0
23.4 0.7 0
23.7 0.7 0
24 0.7 0
24.3 0.7 0
24.6 0.7 0
24.9 0.7 0
25.2 0.7 0
25.5 0.7 0
25.8 0.7 0
26.1 0.7 0
26.4 0.7 0
26.7 0.7 0
27 0.7 0
27.3 0.7 0
27.6 0.7 0
27.9 0.7 0
28.2 0.7 0
28.5 0.7 0
28.8 0.7 0
29.1 0.7 0
29.4 0.7 0
29.7 0.7 0
30 0.7 0
30.3 0.7 0
0 0.8 0
0.3 0.8 0
0.6 0.8 0
0.9 0.8 0
1.2 0.8 0
1.5 0.8 0
1.8 0.8 0
2.1 0.8 0
2.4 0.8 0
2.7 0.8 0
3 0.8 0
3.3 0.8 0
3.6 0.8 0
3.9 0.8 0
4.2 0.8 0
4.5 0.8 0
4.8 0.8 0
5.1 0.8 0
5.4 0.8 0
5.7 0.8 0
6 0.8 0
6.3 0.8 0
6.6 0.8 0
6.9 0.8 0
7.2 0.8 0
7.5 0.8 0
7.8 0.8 0
8.1 0.8 0
8.4 0.8 0
8.7 0.8 0
9 0.8 0
9.3 0.8 0
9.6 0.8 0
9.9 0.8 0
10.2 0.8 0
10.5 0.8 0
10.8 0.8 0
11.1 0.8 0
11.4 0.8 0
11.7 0.8 0
12 0.8 0
12.3 0.8 0
12.6 0.8 0
12.9 0.8 0
13.2 0.8 0
13.5 0.8 0
13.8 0.8 0
14.1 0.8 0
14.4 0.8 0
14.7 0.8 0
15 0.8 0
15.3 0.8 0
15.6 0.8 0
15.9 0.8 0
16.2 0.8 0
16.5 0.8 0
16.8 0.8 0
17.1 0.8 0
17.4 0.8 0
17.7 0.8 0
18 0.8 0
18.3 0.8 0
18.6 0.8 0
18.9 0.8 0
19.2 0.8 0
19.5 0.8 0
19.8 0.8 0
20.1 0.8 0
20.4 0.8 0
20.7 0.8 0
21 0.8 0
21.3 0.8 0
21.6 0.8 0
21.9 0.8 0
22.2 0.8 0
22.5 0.8 0
22.8 0.8 0
23.1 0.8 0
23.4 0.8 0
23.7 0.8 0
24 0.8 0
24.3 0.8 0
24.6 0.8 0
24.9 0.8 0
25.2 0.8 0
25.5 0.8 0
25.8 0.8 0
26.1 0.8 0
26.4 0.8 0
26.7 0.8 0
27 0.8 0
27.3 0.8 0
27.6 0.8 0
27.9 0.8 0
28.2 0.8 0
28.5 0.8 0
28.8 0.8 0
29.1 0.8 0
29.4 0.8 0
29.7 0.8 0
30 0.8 0
30.3 0.8 0
0 0.9 0
0.3 0.9 0
0.6 0.9 0
0.9 0.9 0
1.2 0.9 0
1.5 0.9 0
1.8 0.9 0
2.1 0.9 0
2.4 0.9 0
2.7 0.9 0
3 0.9 0
3.3 0.9 0
3.6 0.9 0
3.9 0.9 0
4.2 0.9 0
4.5 0.9 0
4.8 0.9 0
5.1 0.9 0
5.4 0.9 0
5.7 0.9 0
6 0.9 0
6.3 0.9 0
6.6 0.9 0
6.9 0.9 0
7.2 0.9 0
7.5 0.9 0
7.8 0.9 0
8.1 0.9 0
8.4 0.9 0
8.7 0.9 0
9 0.9 0
9.3 0.9 0
9.6 0.9 0
9.9 0.9 0
10.2 0.9 0
10.5 0.9 0
10.8 0.9 0
11.1 0.9 0
11.4 0.9 0
11.7 0.9 0
12 0.9 0
12.3 0.9 0
12.6 0.9 0
12.9 0.9 0
13.2 0.9 0
13.5 0.9 0
13.8 0.9 0
14.1 0.9 0
14.4 0.9 0
14.7 0.9 0
15 0.9 0
15.3 0.9 0
15.6 0.9 0
15.9 0.9 0
16.2 0.9 0
16.5 0.9 0
16.8 0.9 0
17.1 0.9 0
17.4 0.9 0
17.7 0.9 0
18 0.9 0
18.3 0.9 0
18.6 0.9 0
18.9 0.9 0
19.2 0.9 0
19.5 0.9 0
19.8 0.9 0
20.1 0.9 0
20.4 0.9 0
20.7 0.9 0
21 0.9 0
21.3 0.9 0
21.6 0.9 0
21.9 0.9 0
22.2 0.9 0
22.5 0.9 0
22.8 0.9 0
23.1 0.9 0
23.4 0.9 0
23.7 0.9 0
24 0.9 0
24.3 0.9 0
24.6 0.9 0
24.9 0.9 0
25.2 0.9 0
25.5 0.9 0
25.8 0.9 0
26.1 0.9 0
26.4 0.9 0
26.7 0.9 0
27 0.9 0
27.3 0.9 0
27.6 0.9 0
27.9 0.9 0
28.2 0.9 0
28.5 0.9 0
28.8 0.9 0
29.1 0.9 0
29.4 0.9 0
29.7 0.9 0
30 0.9 0
30.3 0.9 0
0 1 0
0.3 1 0
0.6 1 0
0.9 1 0
1.2 1 0
1.5 1 0
1.8 1 0
2.1 1 0
2.4 1 0
2.7 1 0
3 1 0
3.3 1 0
3.6 1 0
3.9 1 0
4.2 1 0
4.5 1 0
4.8 1 0
5.1 1 0
5.4 1 0
5.7 1 0
6 1 0
6.3 1 0
6.6 1 0
6.9 1 0
7.2 1 0
7.5 1 0
7.8 1 0
8.1 1 0
8.4 1 0
8.7 1 0
9 1 0
9.3 1 0
9.6 1 0
9.9 1 0
10.2 1 0
10.5 1 0
10.8 1 0
11.1 1 0
11.4 1 0
11.7 1 0
12 1 0
12.3 1 0
12.6 1 0
12.9 1 0
13.2 1 0
13.5 1 0
13.8 1 0
14.1 1 0
14.4 1 0
14.7 1 0
15 1 0
15.3 1 0
15.6 1 0
15.9 1 0
16.2 1 0
16.5 1 0
16.8 1 0
17.1 1 0
17.4 1 0
17.7 1 0
18 1 0
18.3 1 0
18.6 1 0
18.9 1 0
19.2 1 0
19.5 1 0
19.8 1 0
20.1 1 0
20.4 1 0
20.7 1 0
21 1 0
21.3 1 0
21.6 1 0
21.9 1 0
22.2 1 0
22.5 1 0
22.8 1 0
23.1 1 0
23.4 1 0
23.7 1 0
24 1 0
24.3 1 0
24.6 1 0
24.9 1 0
25.2 1 0
25.5 1 0
25.8 1 0
26.1 1 0
26.4 1 0
26.7 1 0
27 1 0
27.3 1 0
27.6 1 0
27.9 1 0
28.2 1 0
28.5 1 0
28.8 1 0
29.1 1 0
29.4 1 0
29.7 1 0
30 1 0
30.3 1 0
0 1.1 0
0.3 1.1 0
0.6 1.1 0
0.9 1.1 0
1.2 1.1 0
1.5 1.1 0
1.8 1.1 0
2.1 1.1 0
2.4 1.1 0
2.7 1.1 0
3 1.1 0
3.3 1.1 0
3.6 1.1 0
3.9 1.1 0
4.2 1.1 0
4.5 1.1 0
4.8 1.1 0
5.1 1.1 0
5.4 1.1 0
5.7 1.1 0
6 1.1 0
6.3 1.1 0
6.6 1.1 0
6.9 1.1 0
7.2 1.1 0
7.5 1.1 0
7.8 1.1 0
8.1 1.1 0
8.4 1.1 0
8.7 1.1 0
9 1.1 0
9.3 1.1 0
9.6 1.1 0
9.9 1.1 0
10.2 1.1 0
10.5 1.1 0
10.8 1.1 0
11.1 1.1 0
11.4 1.1 0
11.7 1.1 0
12 1.1 0
12.3 1.1 0
12.6 1.1 0
12.9 1.1 0
13.2 1.1 0
13.5 1.1 0
13.8 1.1 0
14.1 1.1 0
14.4 1.1 0
14.7 1.1 0
15 1.1 0
15.3 1.1 0
15.6 1.1 0
15.9 1.1 0
16.2 1.1 0
16.5 1.1 0
16.8 1.1 0
17.1 1.1 0
17.4 1.1 0
17.7 1.1 0
18 1.1 0
18.3 1.1 0
18.6 1.1 0
18.9 1.1 0
19.2 1.1 0
19.5 1.1 0
19.8 1.1 0
20.1 1.1 0
20.4 1.1 0
20.7 1.1 0
21 1.1 0
21.3 1.1 0
21.6 1.1 0
21.9 1.1 0
22.2 1.1 0
22.5 1.1 0
22.8 1.1 0
23.1 1.1 0
23.4 1.1 0
23.7 1.1 0
24 1.1 0
24.3 1.1 0
24.6 1.1 0
24.9 1.1 0
25.2 1.1 0
25.5 1.1 0
25.8 1.1 0
26.1 1.1 0
26.4 1.1 0
26.7 1.1 0
27 1.1 0
27.3 1.1 0
27.6 1.1 0
27.9 1.1 0
28.2 1.1 0
28.5 1.1 0
28.8 1.1 0
29.1 1.1 0
29.4 1.1 0
29.7 1.1 0
30 1.1 0
30.3 1.1 0
0 1.2 0
0.3 1.2 0
0.6 1.2 0
0.9 1.2 0
1.2 1.2 0
1.5 1.2 0
1.8 1.2 0
2.1 1.2 0
2.4 1.2 0
2.7 1.2 0
3 1.2 0
3.3 1.2 0
3.6 1.2 0
3.9 1.2 0
4.2 1.2 0
4.5 1.2 0
4.8 1.2 0
5.1 1.2 0
5.4 1.2 0
5.7 1.2 0
6 1.2 0
6.3 1.2 0
6.6 1.2 0
6.9 1.2 0
7.2 1.2 0
7.5 1.2 0
7.8 1.2 0
8.1 1.2 0
8.4 1.2 0
8.7 1.2 0
9 1.2 0
9.3 1.2 0
9.6 1.2 0
9.9 1.2 0
10.2 1.2 0
10.5 1.2 0
10.8 1.2 0
11.1 1.2 0
11.4 1.2 0
11.7 1.2 0
12 1.2 0
12.3 1.2 0
12.6 1.2 0
12.9 1.2 0
13.2 1.2 0
13.5 1.2 0
13.8 1.2 0
14.1 1.2 0
14.4 1.2 0
14.7 1.2 0
15 1.2 0
15.3 1.2 0
15.6 1.2 0
15.9 1.2 0
16.2 1.2 0
16.5 1.2 0
16.8 1.2 0
17.1 1.2 0
17.4 1.2 0
17.7 1.2 0
18 1.2 0
18.3 1.2 0
18.6 1.2 0
18.9 1.2 0
19.2 1.2 0
19.5 1.2 0
19.8 1.2 0
20.1 1.2 0
20.4 1.2 0
20.7 1.2 0
21 1.2 0
21.3 1.2 0
21.6 1.2 0
21.9 1.2 0
22.2 1.2 0
22.5 1.2 0
22.8 1.2 0
23.1 1.2 0
23.4 1.2 0
23.7 1.2 0
24 1.2 0
24.3 1.2 0
24.6 1.2 0
24.9 1.2 0
25.2 1.2 0
25.5 1.2 0
25.8 1.2 0
26.1 1.2 0
26.4 1.2 0
26.7 1.2 0
27 1.2 0
27.3 1.2 0
27.6 1.2 0
27.9 1.2 0
28.2 1.2 0
28.5 1.2 0
28.8 1.2 0
29.1 1.2 0
29.4 1.2 0
29.7 1.2 0
30 1.2 0
30.3 1.2 0

POINT_DATA 1326

SCALARS p double
LOOKUP_TABLE default
1.16043
1.16043
1.09558
1.05135
1.01152
0.97495
0.941898
0.91237
0.886014
0.862305
0.840703
0.82074
0.802047
0.784348
0.767441
0.751181
0.735462
0.720207
0.705354
0.69086
0.676685
0.6628
0.64918
0.635801
0.622645
0.609695
0.596935
0.584353
0.571935
0.559671
0.54755
0.535564
0.523703
0.511959
0.500326
0.488797
0.477366
0.466026
0.454773
0.443601
0.432506
0.421483
0.410528
0.399638
0.388809
0.378037
0.367319
0.356652
0.346035
0.335464
0.324938
0.314455
0.304013
0.293612
0.28325
0.272926
0.262639
0.252389
0.242174
0.231992
0.221843
0.211724
0.201635
0.191572
0.181534
0.171519
0.161524
0.151548
0.141587
0.13164
0.121705
0.111781
0.101864
0.0919553
0.0820519
0.0721532
0.0622581
0.052366
0.0424762
0.0325882
0.0227015
0.0128158
0.00293093
-0.0069534
-0.0168373
-0.0267209
-0.0366043
-0.0464876
-0.0563707
-0.0662538
-0.0761368
-0.0860197
-0.0959027
-0.105786
-0.115669
-0.125551
-0.135434
-0.145317
-0.1552
-0.165083
-0.174963
0.174963
1.16043
1.16043
1.09558
1.05135
1.01152
0.97495
0.941898
0.91237
0.886014
0.862305
0.840703
0.82074
0.802047
0.784348
0.767441
0.751181
0.735462
0.720207
0.705354
0.69086
0.676685
0.6628
0.64918
0.635801
0.622645
0.609695
0.596935
0.584353
0.571935
0.559671
0.54755
0.535564
0.523703
0.511959
0.500326
0.488797
0.477366
0.466026
0.454773
0.443601
0.432506
0.421483
0.410528
0.399638
0.388809
0.378037
0.367319
0.356652
0.346035
0.335464
0.324938
0.314455
0.304013
0.293612
0.28325
0.272926
0.262639
0.252389
0.242174
0.231992
0.221843
0.211724
0.201635
0.191572
0.181534
0.171519
0.161524
0.151548
0.141587
0.13164
0.121705
0.111781
0.101864
0.0919553
0.0820519
0.0721532
0.0622581
0.052366
0.0424762
0.0325882
0.0227015
0.0128158
0.00293093
-0.0069534
-0.0168373
-0.0267209
-0.0366043
-0.0464876
-0.0563707
-0.0662538
-0.0761368
-0.0860197
-0.0959027
-0.105786
-0.115669
-0.125551
-0.135434
-0.145317
-0.1552
-0.165083
-0.174963
0.174963
1.13948
1.13948
1.09359
1.05158
1.01223
0.975746
0.942641
0.913001
0.886522
0.8627
0.841006
0.820973
0.802229
0.784492
0.767558
0.751278
0.735545
0.720278
0.705417
0.690915
0.676734
0.662845
0.64922
0.635838
0.622679
0.609726
0.596964
0.584379
0.571959
0.559693
0.547571
0.535583
0.523721
0.511976
0.500342
0.488812
0.477379
0.466039
0.454785
0.443612
0.432516
0.421493
0.410538
0.399647
0.388817
0.378044
0.367326
0.356659
0.346041
0.33547
0.324943
0.31446
0.304018
0.293616
0.283254
0.272929
0.262642
0.252392
0.242176
0.231994
0.221844
0.211726
0.201636
0.191573
0.181535
0.171519
0.161524
0.151548
0.141587
0.13164
0.121705
0.111781
0.101864
0.0919553
0.0820518
0.0721531
0.0622581
0.052366
0.0424762
0.0325881
0.0227015
0.0128158
0.00293091
-0.00695341
-0.0168373
-0.0267209
-0.0366043
-0.0464876
-0.0563707
-0.0662538
-0.0761368
-0.0860197
-0.0959027
-0.105786
-0.115669
-0.125551
-0.135434
-0.145317
-0.1552
-0.165083
-0.174963
0.174963
1.12451
1.12451
1.09071
1.05181
1.01334
0.977071
0.943902
0.914079
0.887383
0.863359
0.841499
0.821338
0.8025
0.784697
0.767716
0.751403
0.735646
0.720362
0.705488
0.690976
0.676787
0.662891
0.649261
0.635875
0.622712
0.609756
0.596991
0.584404
0.571982
0.559714
0.54759
0.5356
0.523737
0.511991
0.500356
0.488825
0.477391
0.46605
0.454795
0.443622
0.432525
0.421501
0.410545
0.399654
0.388824
0.378051
0.367332
0.356665
0.346046
0.335475
0.324948
0.314464
0.304022
0.29362
0.283257
0.272932
0.262645
0.252394
0.242178
0.231995
0.221846
0.211727
0.201636
0.191573
0.181535
0.17152
0.161525
0.151548
0.141587
0.13164
0.121705
0.111781
0.101864
0.0919552
0.0820518
0.072153
0.062258
0.0523659
0.0424761
0.0325881
0.0227014
0.0128158
0.0029309
-0.00695343
-0.0168373
-0.0267209
-0.0366043
-0.0464876
-0.0563707
-0.0662538
-0.0761368
-0.0860197
-0.0959027
-0.105786
-0.115669
-0.125551
-0.135434
-0.145317
-0.1552
-0.165082
-0.174962
0.174962
1.11494
1.11494
1.08823
1.05192
1.01429
0.978265
0.945079
0.915116
0.888236
0.864032
0.842016
0.821733
0.802803
0.784932
0.767902
0.751553
0.735769
0.720465
0.705576
0.691052
0.676854
0.66295
0.649313
0.635921
0.622753
0.609793
0.597025
0.584434
0.57201
0.559739
0.547613
0.535621
0.523756
0.512009
0.500372
0.48884
0.477405
0.466063
0.454807
0.443633
0.432536
0.421511
0.410555
0.399663
0.388832
0.378058
0.367339
0.356671
0.346053
0.335481
0.324953
0.314469
0.304027
0.293624
0.283261
0.272936
0.262649
0.252397
0.242181
0.231998
0.221848
0.211729
0.201639
0.191575
0.181537
0.171521
0.161526
0.151549
0.141588
0.131641
0.121706
0.111781
0.101865
0.0919555
0.082052
0.0721532
0.0622581
0.052366
0.0424762
0.0325881
0.0227015
0.0128158
0.00293091
-0.00695341
-0.0168373
-0.0267209
-0.0366043
-0.0464876
-0.0563707
-0.0662538
-0.0761368
-0.0860197
-0.0959027
-0.105786
-0.115669
-0.125551
-0.135434
-0.145317
-0.155199
-0.16508
-0.174961
0.174961
1.10962
1.10962
1.0866
1.05193
1.01488
0.979032
0.945848
0.915805
0.888814
0.864496
0.842381
0.822017
0.803025
0.785108
0.768044
0.751671
0.735868
0.72055
0.705649
0.691116
0.676911
0.663
0.649358
0.635962
0.62279
0.609826
0.597055
0.584462
0.572035
0.559763
0.547634
0.535641
0.523774
0.512025
0.500388
0.488854
0.477419
0.466075
0.454819
0.443644
0.432546
0.42152
0.410563
0.399671
0.388839
0.378065
0.367346
0.356678
0.346059
0.335486
0.324959
0.314474
0.304031
0.293629
0.283266
0.272941
0.262653
0.252401
0.242185
0.232002
0.221852
0.211732
0.201641
0.191578
0.181539
0.171523
0.161528
0.15155
0.141589
0.131642
0.121707
0.111782
0.101865
0.091956
0.0820524
0.0721535
0.0622584
0.0523662
0.0424763
0.0325883
0.0227016
0.0128159
0.00293096
-0.00695338
-0.0168373
-0.0267209
-0.0366043
-0.0464876
-0.0563707
-0.0662538
-0.0761368
-0.0860197
-0.0959027
-0.105786
-0.115669
-0.125551
-0.135434
-0.145317
-0.155199
-0.165078
-0.17496
0.17496
1.10792
1.10792
1.08605
1.05195
1.0151
0.979306
0.946122
0.916051
0.88902
0.864663
0.842513
0.822121
0.803108
0.785175
0.768099
0.751716
0.735907
0.720583
0.705678
0.691142
0.676934
0.663021
0.649377
0.635979
0.622806
0.609841
0.597068
0.584474
0.572046
0.559773
0.547644
0.53565
0.523782
0.512033
0.500394
0.48886
0.477424
0.466081
0.454824
0.443648
0.43255
0.421524
0.410567
0.399674
0.388843
0.378068
0.367349
0.35668
0.346061
0.335489
0.324961
0.314477
0.304034
0.293631
0.283268
0.272943
0.262655
0.252403
0.242186
0.232004
0.221853
0.211733
0.201643
0.191579
0.18154
0.171524
0.161529
0.151551
0.14159
0.131643
0.121707
0.111782
0.101866
0.0919562
0.0820526
0.0721537
0.0622585
0.0523663
0.0424764
0.0325883
0.0227016
0.0128159
0.00293099
-0.00695336
-0.0168373
-0.0267209
-0.0366043
-0.0464876
-0.0563707
-0.0662538
-0.0761368
-0.0860197
-0.0959027
-0.105786
-0.115669
-0.125551
-0.135434
-0.145317
-0.155199
-0.165076
-0.174959
0.174959
1.10962
1.10962
1.0866
1.05193
1.01488
0.979032
0.945848
0.915805
0.888814
0.864496
0.842381
0.822017
0.803025
0.785108
0.768044
0.751671
0.735868
0.72055
0.705649
0.691116
0.676911
0.663
0.649358
0.635962
0.62279
0.609826
0.597055
0.584462
0.572035
0.559763
0.547634
0.535641
0.523774
0.512025
0.500388
0.488854
0.477419
0.466075
0.454819
0.443644
0.432546
0.42152
0.410563
0.399671
0.388839
0.378065
0.367346
0.356678
0.346059
0.335486
0.324959
0.314474
0.304031
0.293629
0.283266
0.272941
0.262653
0.252401
0.242185
0.232002
0.221852
0.211732
0.201641
0.191578
0.181539
0.171523
0.161528
0.15155
0.141589
0.131642
0.121707
0.111782
0.101865
0.091956
0.0820524
0.0721535
0.0622584
0.0523662
0.0424763
0.0325883
0.0227016
0.0128159
0.00293096
-0.00695338
-0.0168373
-0.0267209
-0.0366043
-0.0464876
-0.0563707
-0.0662538
-0.0761368
-0.0860197
-0.0959027
-0.105786
-0.115669
-0.125551
-0.135434
-0.145317
-0.155199
-0.165078
-0.17496
0.17496
1.11494
1.11494
1.08823
1.05192
1.01429
0.978265
0.945079
0.915116
0.888236
0.864032
0.842016
0.821733
0.802803
0.784932
0.767902
0.751553
0.735769
0.720465
0.705576
0.691052
0.676854
0.66295
0.649313
0.635921
0.622753
0.609793
0.597025
0.584434
0.57201
0.559739
0.547613
0.535621
0.523756
0.512009
0.500372
0.48884
0.477405
0.466063
0.454807
0.443633
0.432536
0.421511
0.410555
0.399663
0.388832
0.378058
0.367339
0.356671
0.346053
0.335481
0.324953
0.314469
0.304027
0.293624
0.283261
0.272936
0.262649
0.252397
0.242181
0.231998
0.221848
0.211729
0.201639
0.191575
0.181537
0.171521
0.161526
0.151549
0.141588
0.131641
0.121706
0.111781
0.101865
0.0919555
0.082052
0.0721532
0.0622581
0.052366
0.0424762
0.0325882
0.0227015
0.0128158
0.00293092
-0.00695341
-0.0168373
-0.0267209
-0.0366043
-0.0464876
-0.0563707
-0.0662538
-0.0761368
-0.0860197
-0.0959027
-0.105786
-0.115669
-0.125551
-0.135434
-0.145317
-0.155199
-0.16508
-0.174961
0.174961
1.12451
1.12451
1.09071
1.05181
1.01334
0.977071
0.943902
0.914079
0.887383
0.863359
0.841499
0.821338
0.8025
0.784697
0.767716
0.751403
0.735646
0.720362
0.705488
0.690976
0.676787
0.662891
0.649261
0.635875
0.622712
0.609756
0.596991
0.584404
0.571982
0.559714
0.54759
0.5356
0.523737
0.511991
0.500356
0.488825
0.477391
0.46605
0.454795
0.443622
0.432525
0.421501
0.410545
0.399654
0.388824
0.378051
0.367332
0.356665
0.346046
0.335475
0.324948
0.314464
0.304022
0.29362
0.283257
0.272932
0.262645
0.252394
0.242178
0.231995
0.221846
0.211727
0.201636
0.191573
0.181535
0.17152
0.161525
0.151548
0.141587
0.13164
0.121705
0.111781
0.101864
0.0919552
0.0820518
0.072153
0.062258
0.0523659
0.0424761
0.0325881
0.0227014
0.0128158
0.0029309
-0.00695342
-0.0168373
-0.0267209
-0.0366043
-0.0464876
-0.0563707
-0.0662538
-0.0761368
-0.0860197
-0.0959027
-0.105786
-0.115669
-0.125551
-0.135434
-0.145317
-0.1552
-0.165082
-0.174962
0.174962
1.13948
1.13948
1.09359
1.05158
1.01223
0.975746
0.942641
0.913001
0.886522
0.8627
0.841006
0.820973
0.802229
0.784492
0.767558
0.751278
0.735545
0.720278
0.705417
0.690915
0.676734
0.662845
0.64922
0.635838
0.622679
0.609726
0.596964
0.584379
0.571959
0.559693
0.547571
0.535583
0.523721
0.511976
0.500342
0.488812
0.477379
0.466039
0.454785
0.443612
0.432516
0.421493
0.410538
0.399647
0.388817
0.378044
0.367326
0.356659
0.346041
0.33547
0.324943
0.31446
0.304018
0.293616
0.283254
0.272929
0.262642
0.252392
0.242176
0.231994
0.221844
0.211726
0.201636
0.191573
0.181535
0.171519
0.161524
0.151548
0.141587
0.13164
0.121705
0.111781
0.101864
0.0919552
0.0820518
0.0721531
0.0622581
0.052366
0.0424762
0.0325881
0.0227015
0.0128158
0.00293092
-0.00695341
-0.0168373
-0.0267209
-0.0366043
-0.0464876
-0.0563707
-0.0662538
-0.0761368
-0.0860197
-0.0959027
-0.105786
-0.115669
-0.125551
-0.135434
-0.145317
-0.1552
-0.165083
-0.174963
0.174963
1.16043
1.16043
1.09558
1.05135
1.01152
0.97495
0.941898
0.91237
0.886014
0.862305
0.840703
0.82074
0.802047
0.784348
0.767441
0.751181
0.735462
0.720207
0.705354
0.69086
0.676685
0.6628
0.64918
0.635801
0.622645
0.609695
0.596935
0.584353
0.571935
0.559671
0.54755
0.535564
0.523703
0.511959
0.500326
0.488797
0.477366
0.466026
0.454773
0.443601
0.432506
0.421483
0.410528
0.399638
0.388809
0.378037
0.367319
0.356652
0.346035
0.335464
0.324938
0.314455
0.304013
0.293612
0.28325
0.272926
0.262639
0.252389
0.242174
0.231992
0.221843
0.211724
0.201635
0.191572
0.181534
0.171519
0.161524
0.151548
0.141587
0.13164
0.121705
0.111781
0.101864
0.0919553
0.0820519
0.0721531
0.0622581
0.052366
0.0424762
0.0325882
0.0227015
0.0128158
0.00293093
-0.0069534
-0.0168373
-0.0267209
-0.0366043
-0.0464876
-0.0563707
-0.0662538
-0.0761368
-0.0860197
-0.0959027
-0.105786
-0.115669
-0.125551
-0.135434
-0.145317
-0.1552
-0.165083
-0.174963
0.174963
1.16043
1.16043
1.09558
1.05135
1.01152
0.97495
0.941898
0.91237
0.886014
0.862305
0.840703
0.82074
0.802047
0.784348
0.767441
0.751181
0.735462
0.720207
0.705354
0.69086
0.676685
0.6628
0.64918
0.635801
0.622645
0.609695
0.596935
0.584353
0.571935
0.559671
0.54755
0.535564
0.523703
0.511959
0.500326
0.488797
0.477366
0.466026
0.454773
0.443601
0.432506
0.421483
0.410528
0.399638
0.388809
0.378037
0.367319
0.356652
0.346035
0.335464
0.324938
0.314455
0.304013
0.293612
0.28325
0.272926
0.262639
0.252389
0.242174
0.231992
0.221843
0.211724
0.201635
0.191572
0.181534
0.171519
0.161524
0.151548
0.141587
0.13164
0.121705
0.111781
0.101864
0.0919553
0.0820519
0.0721531
0.0622581
0.052366
0.0424762
0.0325882
0.0227015
0.0128158
0.00293093
-0.0069534
-0.0168373
-0.0267209
-0.0366043
-0.0464876
-0.0563707
-0.0662538
-0.0761368
-0.0860197
-0.0959027
-0.105786
-0.115669
-0.125551
-0.135434
-0.145317
-0.1552
-0.165083
-0.174963
0.174963
