# vtk DataFile Version 2.0
FlowField
ASCII
DATASET STRUCTURED_GRID
DIMENSIONS 102 1 12 
POINTS 1224 double
0 0 0
0.4 0 0
0.8 0 0
1.2 0 0
1.6 0 0
2 0 0
2.4 0 0
2.8 0 0
3.2 0 0
3.6 0 0
4 0 0
4.4 0 0
4.8 0 0
5.2 0 0
5.6 0 0
6 0 0
6.4 0 0
6.8 0 0
7.2 0 0
7.6 0 0
8 0 0
8.4 0 0
8.8 0 0
9.2 0 0
9.6 0 0
10 0 0
10.4 0 0
10.8 0 0
11.2 0 0
11.6 0 0
12 0 0
12.4 0 0
12.8 0 0
13.2 0 0
13.6 0 0
14 0 0
14.4 0 0
14.8 0 0
15.2 0 0
15.6 0 0
16 0 0
16.4 0 0
16.8 0 0
17.2 0 0
17.6 0 0
18 0 0
18.4 0 0
18.8 0 0
19.2 0 0
19.6 0 0
20 0 0
20.4 0 0
20.8 0 0
21.2 0 0
21.6 0 0
22 0 0
22.4 0 0
22.8 0 0
23.2 0 0
23.6 0 0
24 0 0
24.4 0 0
24.8 0 0
25.2 0 0
25.6 0 0
26 0 0
26.4 0 0
26.8 0 0
27.2 0 0
27.6 0 0
28 0 0
28.4 0 0
28.8 0 0
29.2 0 0
29.6 0 0
30 0 0
30.4 0 0
30.8 0 0
31.2 0 0
31.6 0 0
32 0 0
32.4 0 0
32.8 0 0
33.2 0 0
33.6 0 0
34 0 0
34.4 0 0
34.8 0 0
35.2 0 0
35.6 0 0
36 0 0
36.4 0 0
36.8 0 0
37.2 0 0
37.6 0 0
38 0 0
38.4 0 0
38.8 0 0
39.2 0 0
39.6 0 0
40 0 0
40.4 0 0
0 0.1 0
0.4 0.1 0
0.8 0.1 0
1.2 0.1 0
1.6 0.1 0
2 0.1 0
2.4 0.1 0
2.8 0.1 0
3.2 0.1 0
3.6 0.1 0
4 0.1 0
4.4 0.1 0
4.8 0.1 0
5.2 0.1 0
5.6 0.1 0
6 0.1 0
6.4 0.1 0
6.8 0.1 0
7.2 0.1 0
7.6 0.1 0
8 0.1 0
8.4 0.1 0
8.8 0.1 0
9.2 0.1 0
9.6 0.1 0
10 0.1 0
10.4 0.1 0
10.8 0.1 0
11.2 0.1 0
11.6 0.1 0
12 0.1 0
12.4 0.1 0
12.8 0.1 0
13.2 0.1 0
13.6 0.1 0
14 0.1 0
14.4 0.1 0
14.8 0.1 0
15.2 0.1 0
15.6 0.1 0
16 0.1 0
16.4 0.1 0
16.8 0.1 0
17.2 0.1 0
17.6 0.1 0
18 0.1 0
18.4 0.1 0
18.8 0.1 0
19.2 0.1 0
19.6 0.1 0
20 0.1 0
20.4 0.1 0
20.8 0.1 0
21.2 0.1 0
21.6 0.1 0
22 0.1 0
22.4 0.1 0
22.8 0.1 0
23.2 0.1 0
23.6 0.1 0
24 0.1 0
24.4 0.1 0
24.8 0.1 0
25.2 0.1 0
25.6 0.1 0
26 0.1 0
26.4 0.1 0
26.8 0.1 0
27.2 0.1 0
27.6 0.1 0
28 0.1 0
28.4 0.1 0
28.8 0.1 0
29.2 0.1 0
29.6 0.1 0
30 0.1 0
30.4 0.1 0
30.8 0.1 0
31.2 0.1 0
31.6 0.1 0
32 0.1 0
32.4 0.1 0
32.8 0.1 0
33.2 0.1 0
33.6 0.1 0
34 0.1 0
34.4 0.1 0
34.8 0.1 0
35.2 0.1 0
35.6 0.1 0
36 0.1 0
36.4 0.1 0
36.8 0.1 0
37.2 0.1 0
37.6 0.1 0
38 0.1 0
38.4 0.1 0
38.8 0.1 0
39.2 0.1 0
39.6 0.1 0
40 0.1 0
40.4 0.1 0
0 0.2 0
0.4 0.2 0
0.8 0.2 0
1.2 0.2 0
1.6 0.2 0
2 0.2 0
2.4 0.2 0
2.8 0.2 0
3.2 0.2 0
3.6 0.2 0
4 0.2 0
4.4 0.2 0
4.8 0.2 0
5.2 0.2 0
5.6 0.2 0
6 0.2 0
6.4 0.2 0
6.8 0.2 0
7.2 0.2 0
7.6 0.2 0
8 0.2 0
8.4 0.2 0
8.8 0.2 0
9.2 0.2 0
9.6 0.2 0
10 0.2 0
10.4 0.2 0
10.8 0.2 0
11.2 0.2 0
11.6 0.2 0
12 0.2 0
12.4 0.2 0
12.8 0.2 0
13.2 0.2 0
13.6 0.2 0
14 0.2 0
14.4 0.2 0
14.8 0.2 0
15.2 0.2 0
15.6 0.2 0
16 0.2 0
16.4 0.2 0
16.8 0.2 0
17.2 0.2 0
17.6 0.2 0
18 0.2 0
18.4 0.2 0
18.8 0.2 0
19.2 0.2 0
19.6 0.2 0
20 0.2 0
20.4 0.2 0
20.8 0.2 0
21.2 0.2 0
21.6 0.2 0
22 0.2 0
22.4 0.2 0
22.8 0.2 0
23.2 0.2 0
23.6 0.2 0
24 0.2 0
24.4 0.2 0
24.8 0.2 0
25.2 0.2 0
25.6 0.2 0
26 0.2 0
26.4 0.2 0
26.8 0.2 0
27.2 0.2 0
27.6 0.2 0
28 0.2 0
28.4 0.2 0
28.8 0.2 0
29.2 0.2 0
29.6 0.2 0
30 0.2 0
30.4 0.2 0
30.8 0.2 0
31.2 0.2 0
31.6 0.2 0
32 0.2 0
32.4 0.2 0
32.8 0.2 0
33.2 0.2 0
33.6 0.2 0
34 0.2 0
34.4 0.2 0
34.8 0.2 0
35.2 0.2 0
35.6 0.2 0
36 0.2 0
36.4 0.2 0
36.8 0.2 0
37.2 0.2 0
37.6 0.2 0
38 0.2 0
38.4 0.2 0
38.8 0.2 0
39.2 0.2 0
39.6 0.2 0
40 0.2 0
40.4 0.2 0
0 0.3 0
0.4 0.3 0
0.8 0.3 0
1.2 0.3 0
1.6 0.3 0
2 0.3 0
2.4 0.3 0
2.8 0.3 0
3.2 0.3 0
3.6 0.3 0
4 0.3 0
4.4 0.3 0
4.8 0.3 0
5.2 0.3 0
5.6 0.3 0
6 0.3 0
6.4 0.3 0
6.8 0.3 0
7.2 0.3 0
7.6 0.3 0
8 0.3 0
8.4 0.3 0
8.8 0.3 0
9.2 0.3 0
9.6 0.3 0
10 0.3 0
10.4 0.3 0
10.8 0.3 0
11.2 0.3 0
11.6 0.3 0
12 0.3 0
12.4 0.3 0
12.8 0.3 0
13.2 0.3 0
13.6 0.3 0
14 0.3 0
14.4 0.3 0
14.8 0.3 0
15.2 0.3 0
15.6 0.3 0
16 0.3 0
16.4 0.3 0
16.8 0.3 0
17.2 0.3 0
17.6 0.3 0
18 0.3 0
18.4 0.3 0
18.8 0.3 0
19.2 0.3 0
19.6 0.3 0
20 0.3 0
20.4 0.3 0
20.8 0.3 0
21.2 0.3 0
21.6 0.3 0
22 0.3 0
22.4 0.3 0
22.8 0.3 0
23.2 0.3 0
23.6 0.3 0
24 0.3 0
24.4 0.3 0
24.8 0.3 0
25.2 0.3 0
25.6 0.3 0
26 0.3 0
26.4 0.3 0
26.8 0.3 0
27.2 0.3 0
27.6 0.3 0
28 0.3 0
28.4 0.3 0
28.8 0.3 0
29.2 0.3 0
29.6 0.3 0
30 0.3 0
30.4 0.3 0
30.8 0.3 0
31.2 0.3 0
31.6 0.3 0
32 0.3 0
32.4 0.3 0
32.8 0.3 0
33.2 0.3 0
33.6 0.3 0
34 0.3 0
34.4 0.3 0
34.8 0.3 0
35.2 0.3 0
35.6 0.3 0
36 0.3 0
36.4 0.3 0
36.8 0.3 0
37.2 0.3 0
37.6 0.3 0
38 0.3 0
38.4 0.3 0
38.8 0.3 0
39.2 0.3 0
39.6 0.3 0
40 0.3 0
40.4 0.3 0
0 0.4 0
0.4 0.4 0
0.8 0.4 0
1.2 0.4 0
1.6 0.4 0
2 0.4 0
2.4 0.4 0
2.8 0.4 0
3.2 0.4 0
3.6 0.4 0
4 0.4 0
4.4 0.4 0
4.8 0.4 0
5.2 0.4 0
5.6 0.4 0
6 0.4 0
6.4 0.4 0
6.8 0.4 0
7.2 0.4 0
7.6 0.4 0
8 0.4 0
8.4 0.4 0
8.8 0.4 0
9.2 0.4 0
9.6 0.4 0
10 0.4 0
10.4 0.4 0
10.8 0.4 0
11.2 0.4 0
11.6 0.4 0
12 0.4 0
12.4 0.4 0
12.8 0.4 0
13.2 0.4 0
13.6 0.4 0
14 0.4 0
14.4 0.4 0
14.8 0.4 0
15.2 0.4 0
15.6 0.4 0
16 0.4 0
16.4 0.4 0
16.8 0.4 0
17.2 0.4 0
17.6 0.4 0
18 0.4 0
18.4 0.4 0
18.8 0.4 0
19.2 0.4 0
19.6 0.4 0
20 0.4 0
20.4 0.4 0
20.8 0.4 0
21.2 0.4 0
21.6 0.4 0
22 0.4 0
22.4 0.4 0
22.8 0.4 0
23.2 0.4 0
23.6 0.4 0
24 0.4 0
24.4 0.4 0
24.8 0.4 0
25.2 0.4 0
25.6 0.4 0
26 0.4 0
26.4 0.4 0
26.8 0.4 0
27.2 0.4 0
27.6 0.4 0
28 0.4 0
28.4 0.4 0
28.8 0.4 0
29.2 0.4 0
29.6 0.4 0
30 0.4 0
30.4 0.4 0
30.8 0.4 0
31.2 0.4 0
31.6 0.4 0
32 0.4 0
32.4 0.4 0
32.8 0.4 0
33.2 0.4 0
33.6 0.4 0
34 0.4 0
34.4 0.4 0
34.8 0.4 0
35.2 0.4 0
35.6 0.4 0
36 0.4 0
36.4 0.4 0
36.8 0.4 0
37.2 0.4 0
37.6 0.4 0
38 0.4 0
38.4 0.4 0
38.8 0.4 0
39.2 0.4 0
39.6 0.4 0
40 0.4 0
40.4 0.4 0
0 0.5 0
0.4 0.5 0
0.8 0.5 0
1.2 0.5 0
1.6 0.5 0
2 0.5 0
2.4 0.5 0
2.8 0.5 0
3.2 0.5 0
3.6 0.5 0
4 0.5 0
4.4 0.5 0
4.8 0.5 0
5.2 0.5 0
5.6 0.5 0
6 0.5 0
6.4 0.5 0
6.8 0.5 0
7.2 0.5 0
7.6 0.5 0
8 0.5 0
8.4 0.5 0
8.8 0.5 0
9.2 0.5 0
9.6 0.5 0
10 0.5 0
10.4 0.5 0
10.8 0.5 0
11.2 0.5 0
11.6 0.5 0
12 0.5 0
12.4 0.5 0
12.8 0.5 0
13.2 0.5 0
13.6 0.5 0
14 0.5 0
14.4 0.5 0
14.8 0.5 0
15.2 0.5 0
15.6 0.5 0
16 0.5 0
16.4 0.5 0
16.8 0.5 0
17.2 0.5 0
17.6 0.5 0
18 0.5 0
18.4 0.5 0
18.8 0.5 0
19.2 0.5 0
19.6 0.5 0
20 0.5 0
20.4 0.5 0
20.8 0.5 0
21.2 0.5 0
21.6 0.5 0
22 0.5 0
22.4 0.5 0
22.8 0.5 0
23.2 0.5 0
23.6 0.5 0
24 0.5 0
24.4 0.5 0
24.8 0.5 0
25.2 0.5 0
25.6 0.5 0
26 0.5 0
26.4 0.5 0
26.8 0.5 0
27.2 0.5 0
27.6 0.5 0
28 0.5 0
28.4 0.5 0
28.8 0.5 0
29.2 0.5 0
29.6 0.5 0
30 0.5 0
30.4 0.5 0
30.8 0.5 0
31.2 0.5 0
31.6 0.5 0
32 0.5 0
32.4 0.5 0
32.8 0.5 0
33.2 0.5 0
33.6 0.5 0
34 0.5 0
34.4 0.5 0
34.8 0.5 0
35.2 0.5 0
35.6 0.5 0
36 0.5 0
36.4 0.5 0
36.8 0.5 0
37.2 0.5 0
37.6 0.5 0
38 0.5 0
38.4 0.5 0
38.8 0.5 0
39.2 0.5 0
39.6 0.5 0
40 0.5 0
40.4 0.5 0
0 0.6 0
0.4 0.6 0
0.8 0.6 0
1.2 0.6 0
1.6 0.6 0
2 0.6 0
2.4 0.6 0
2.8 0.6 0
3.2 0.6 0
3.6 0.6 0
4 0.6 0
4.4 0.6 0
4.8 0.6 0
5.2 0.6 0
5.6 0.6 0
6 0.6 0
6.4 0.6 0
6.8 0.6 0
7.2 0.6 0
7.6 0.6 0
8 0.6 0
8.4 0.6 0
8.8 0.6 0
9.2 0.6 0
9.6 0.6 0
10 0.6 0
10.4 0.6 0
10.8 0.6 0
11.2 0.6 0
11.6 0.6 0
12 0.6 0
12.4 0.6 0
12.8 0.6 0
13.2 0.6 0
13.6 0.6 0
14 0.6 0
14.4 0.6 0
14.8 0.6 0
15.2 0.6 0
15.6 0.6 0
16 0.6 0
16.4 0.6 0
16.8 0.6 0
17.2 0.6 0
17.6 0.6 0
18 0.6 0
18.4 0.6 0
18.8 0.6 0
19.2 0.6 0
19.6 0.6 0
20 0.6 0
20.4 0.6 0
20.8 0.6 0
21.2 0.6 0
21.6 0.6 0
22 0.6 0
22.4 0.6 0
22.8 0.6 0
23.2 0.6 0
23.6 0.6 0
24 0.6 0
24.4 0.6 0
24.8 0.6 0
25.2 0.6 0
25.6 0.6 0
26 0.6 0
26.4 0.6 0
26.8 0.6 0
27.2 0.6 0
27.6 0.6 0
28 0.6 0
28.4 0.6 0
28.8 0.6 0
29.2 0.6 0
29.6 0.6 0
30 0.6 0
30.4 0.6 0
30.8 0.6 0
31.2 0.6 0
31.6 0.6 0
32 0.6 0
32.4 0.6 0
32.8 0.6 0
33.2 0.6 0
33.6 0.6 0
34 0.6 0
34.4 0.6 0
34.8 0.6 0
35.2 0.6 0
35.6 0.6 0
36 0.6 0
36.4 0.6 0
36.8 0.6 0
37.2 0.6 0
37.6 0.6 0
38 0.6 0
38.4 0.6 0
38.8 0.6 0
39.2 0.6 0
39.6 0.6 0
40 0.6 0
40.4 0.6 0
0 0.7 0
0.4 0.7 0
0.8 0.7 0
1.2 0.7 0
1.6 0.7 0
2 0.7 0
2.4 0.7 0
2.8 0.7 0
3.2 0.7 0
3.6 0.7 0
4 0.7 0
4.4 0.7 0
4.8 0.7 0
5.2 0.7 0
5.6 0.7 0
6 0.7 0
6.4 0.7 0
6.8 0.7 0
7.2 0.7 0
7.6 0.7 0
8 0.7 0
8.4 0.7 0
8.8 0.7 0
9.2 0.7 0
9.6 0.7 0
10 0.7 0
10.4 0.7 0
10.8 0.7 0
11.2 0.7 0
11.6 0.7 0
12 0.7 0
12.4 0.7 0
12.8 0.7 0
13.2 0.7 0
13.6 0.7 0
14 0.7 0
14.4 0.7 0
14.8 0.7 0
15.2 0.7 0
15.6 0.7 0
16 0.7 0
16.4 0.7 0
16.8 0.7 0
17.2 0.7 0
17.6 0.7 0
18 0.7 0
18.4 0.7 0
18.8 0.7 0
19.2 0.7 0
19.6 0.7 0
20 0.7 0
20.4 0.7 0
20.8 0.7 0
21.2 0.7 0
21.6 0.7 0
22 0.7 0
22.4 0.7 0
22.8 0.7 0
23.2 0.7 0
23.6 0.7 0
24 0.7 0
24.4 0.7 0
24.8 0.7 0
25.2 0.7 0
25.6 0.7 0
26 0.7 0
26.4 0.7 0
26.8 0.7 0
27.2 0.7 0
27.6 0.7 0
28 0.7 0
28.4 0.7 0
28.8 0.7 0
29.2 0.7 0
29.6 0.7 0
30 0.7 0
30.4 0.7 0
30.8 0.7 0
31.2 0.7 0
31.6 0.7 0
32 0.7 0
32.4 0.7 0
32.8 0.7 0
33.2 0.7 0
33.6 0.7 0
34 0.7 0
34.4 0.7 0
34.8 0.7 0
35.2 0.7 0
35.6 0.7 0
36 0.7 0
36.4 0.7 0
36.8 0.7 0
37.2 0.7 0
37.6 0.7 0
38 0.7 0
38.4 0.7 0
38.8 0.7 0
39.2 0.7 0
39.6 0.7 0
40 0.7 0
40.4 0.7 0
0 0.8 0
0.4 0.8 0
0.8 0.8 0
1.2 0.8 0
1.6 0.8 0
2 0.8 0
2.4 0.8 0
2.8 0.8 0
3.2 0.8 0
3.6 0.8 0
4 0.8 0
4.4 0.8 0
4.8 0.8 0
5.2 0.8 0
5.6 0.8 0
6 0.8 0
6.4 0.8 0
6.8 0.8 0
7.2 0.8 0
7.6 0.8 0
8 0.8 0
8.4 0.8 0
8.8 0.8 0
9.2 0.8 0
9.6 0.8 0
10 0.8 0
10.4 0.8 0
10.8 0.8 0
11.2 0.8 0
11.6 0.8 0
12 0.8 0
12.4 0.8 0
12.8 0.8 0
13.2 0.8 0
13.6 0.8 0
14 0.8 0
14.4 0.8 0
14.8 0.8 0
15.2 0.8 0
15.6 0.8 0
16 0.8 0
16.4 0.8 0
16.8 0.8 0
17.2 0.8 0
17.6 0.8 0
18 0.8 0
18.4 0.8 0
18.8 0.8 0
19.2 0.8 0
19.6 0.8 0
20 0.8 0
20.4 0.8 0
20.8 0.8 0
21.2 0.8 0
21.6 0.8 0
22 0.8 0
22.4 0.8 0
22.8 0.8 0
23.2 0.8 0
23.6 0.8 0
24 0.8 0
24.4 0.8 0
24.8 0.8 0
25.2 0.8 0
25.6 0.8 0
26 0.8 0
26.4 0.8 0
26.8 0.8 0
27.2 0.8 0
27.6 0.8 0
28 0.8 0
28.4 0.8 0
28.8 0.8 0
29.2 0.8 0
29.6 0.8 0
30 0.8 0
30.4 0.8 0
30.8 0.8 0
31.2 0.8 0
31.6 0.8 0
32 0.8 0
32.4 0.8 0
32.8 0.8 0
33.2 0.8 0
33.6 0.8 0
34 0.8 0
34.4 0.8 0
34.8 0.8 0
35.2 0.8 0
35.6 0.8 0
36 0.8 0
36.4 0.8 0
36.8 0.8 0
37.2 0.8 0
37.6 0.8 0
38 0.8 0
38.4 0.8 0
38.8 0.8 0
39.2 0.8 0
39.6 0.8 0
40 0.8 0
40.4 0.8 0
0 0.9 0
0.4 0.9 0
0.8 0.9 0
1.2 0.9 0
1.6 0.9 0
2 0.9 0
2.4 0.9 0
2.8 0.9 0
3.2 0.9 0
3.6 0.9 0
4 0.9 0
4.4 0.9 0
4.8 0.9 0
5.2 0.9 0
5.6 0.9 0
6 0.9 0
6.4 0.9 0
6.8 0.9 0
7.2 0.9 0
7.6 0.9 0
8 0.9 0
8.4 0.9 0
8.8 0.9 0
9.2 0.9 0
9.6 0.9 0
10 0.9 0
10.4 0.9 0
10.8 0.9 0
11.2 0.9 0
11.6 0.9 0
12 0.9 0
12.4 0.9 0
12.8 0.9 0
13.2 0.9 0
13.6 0.9 0
14 0.9 0
14.4 0.9 0
14.8 0.9 0
15.2 0.9 0
15.6 0.9 0
16 0.9 0
16.4 0.9 0
16.8 0.9 0
17.2 0.9 0
17.6 0.9 0
18 0.9 0
18.4 0.9 0
18.8 0.9 0
19.2 0.9 0
19.6 0.9 0
20 0.9 0
20.4 0.9 0
20.8 0.9 0
21.2 0.9 0
21.6 0.9 0
22 0.9 0
22.4 0.9 0
22.8 0.9 0
23.2 0.9 0
23.6 0.9 0
24 0.9 0
24.4 0.9 0
24.8 0.9 0
25.2 0.9 0
25.6 0.9 0
26 0.9 0
26.4 0.9 0
26.8 0.9 0
27.2 0.9 0
27.6 0.9 0
28 0.9 0
28.4 0.9 0
28.8 0.9 0
29.2 0.9 0
29.6 0.9 0
30 0.9 0
30.4 0.9 0
30.8 0.9 0
31.2 0.9 0
31.6 0.9 0
32 0.9 0
32.4 0.9 0
32.8 0.9 0
33.2 0.9 0
33.6 0.9 0
34 0.9 0
34.4 0.9 0
34.8 0.9 0
35.2 0.9 0
35.6 0.9 0
36 0.9 0
36.4 0.9 0
36.8 0.9 0
37.2 0.9 0
37.6 0.9 0
38 0.9 0
38.4 0.9 0
38.8 0.9 0
39.2 0.9 0
39.6 0.9 0
40 0.9 0
40.4 0.9 0
0 1 0
0.4 1 0
0.8 1 0
1.2 1 0
1.6 1 0
2 1 0
2.4 1 0
2.8 1 0
3.2 1 0
3.6 1 0
4 1 0
4.4 1 0
4.8 1 0
5.2 1 0
5.6 1 0
6 1 0
6.4 1 0
6.8 1 0
7.2 1 0
7.6 1 0
8 1 0
8.4 1 0
8.8 1 0
9.2 1 0
9.6 1 0
10 1 0
10.4 1 0
10.8 1 0
11.2 1 0
11.6 1 0
12 1 0
12.4 1 0
12.8 1 0
13.2 1 0
13.6 1 0
14 1 0
14.4 1 0
14.8 1 0
15.2 1 0
15.6 1 0
16 1 0
16.4 1 0
16.8 1 0
17.2 1 0
17.6 1 0
18 1 0
18.4 1 0
18.8 1 0
19.2 1 0
19.6 1 0
20 1 0
20.4 1 0
20.8 1 0
21.2 1 0
21.6 1 0
22 1 0
22.4 1 0
22.8 1 0
23.2 1 0
23.6 1 0
24 1 0
24.4 1 0
24.8 1 0
25.2 1 0
25.6 1 0
26 1 0
26.4 1 0
26.8 1 0
27.2 1 0
27.6 1 0
28 1 0
28.4 1 0
28.8 1 0
29.2 1 0
29.6 1 0
30 1 0
30.4 1 0
30.8 1 0
31.2 1 0
31.6 1 0
32 1 0
32.4 1 0
32.8 1 0
33.2 1 0
33.6 1 0
34 1 0
34.4 1 0
34.8 1 0
35.2 1 0
35.6 1 0
36 1 0
36.4 1 0
36.8 1 0
37.2 1 0
37.6 1 0
38 1 0
38.4 1 0
38.8 1 0
39.2 1 0
39.6 1 0
40 1 0
40.4 1 0
0 1.1 0
0.4 1.1 0
0.8 1.1 0
1.2 1.1 0
1.6 1.1 0
2 1.1 0
2.4 1.1 0
2.8 1.1 0
3.2 1.1 0
3.6 1.1 0
4 1.1 0
4.4 1.1 0
4.8 1.1 0
5.2 1.1 0
5.6 1.1 0
6 1.1 0
6.4 1.1 0
6.8 1.1 0
7.2 1.1 0
7.6 1.1 0
8 1.1 0
8.4 1.1 0
8.8 1.1 0
9.2 1.1 0
9.6 1.1 0
10 1.1 0
10.4 1.1 0
10.8 1.1 0
11.2 1.1 0
11.6 1.1 0
12 1.1 0
12.4 1.1 0
12.8 1.1 0
13.2 1.1 0
13.6 1.1 0
14 1.1 0
14.4 1.1 0
14.8 1.1 0
15.2 1.1 0
15.6 1.1 0
16 1.1 0
16.4 1.1 0
16.8 1.1 0
17.2 1.1 0
17.6 1.1 0
18 1.1 0
18.4 1.1 0
18.8 1.1 0
19.2 1.1 0
19.6 1.1 0
20 1.1 0
20.4 1.1 0
20.8 1.1 0
21.2 1.1 0
21.6 1.1 0
22 1.1 0
22.4 1.1 0
22.8 1.1 0
23.2 1.1 0
23.6 1.1 0
24 1.1 0
24.4 1.1 0
24.8 1.1 0
25.2 1.1 0
25.6 1.1 0
26 1.1 0
26.4 1.1 0
26.8 1.1 0
27.2 1.1 0
27.6 1.1 0
28 1.1 0
28.4 1.1 0
28.8 1.1 0
29.2 1.1 0
29.6 1.1 0
30 1.1 0
30.4 1.1 0
30.8 1.1 0
31.2 1.1 0
31.6 1.1 0
32 1.1 0
32.4 1.1 0
32.8 1.1 0
33.2 1.1 0
33.6 1.1 0
34 1.1 0
34.4 1.1 0
34.8 1.1 0
35.2 1.1 0
35.6 1.1 0
36 1.1 0
36.4 1.1 0
36.8 1.1 0
37.2 1.1 0
37.6 1.1 0
38 1.1 0
38.4 1.1 0
38.8 1.1 0
39.2 1.1 0
39.6 1.1 0
40 1.1 0
40.4 1.1 0

POINT_DATA 1224

SCALARS u double
LOOKUP_TABLE default
-1
-0.80718
-0.659027
-0.550101
-0.474363
-0.423321
-0.389
-0.365438
-0.348706
-0.336384
-0.327019
-0.319733
-0.313978
-0.309399
-0.305757
-0.302881
-0.300647
-0.298957
-0.297729
-0.296892
-0.296377
-0.296117
-0.296055
-0.296148
-0.296331
-0.296555
-0.296787
-0.297004
-0.297196
-0.297356
-0.297486
-0.297587
-0.297664
-0.297721
-0.297763
-0.297793
-0.297814
-0.297829
-0.297839
-0.297846
-0.297851
-0.297854
-0.297856
-0.297858
-0.297859
-0.297859
-0.29786
-0.29786
-0.29786
-0.29786
-0.29786
-0.29786
-0.297861
-0.297861
-0.297861
-0.297861
-0.297861
-0.297861
-0.297861
-0.297861
-0.297861
-0.297861
-0.297861
-0.297861
-0.297861
-0.297861
-0.297861
-0.297861
-0.297861
-0.297861
-0.297861
-0.297861
-0.297861
-0.29786
-0.29786
-0.29786
-0.29786
-0.29786
-0.29786
-0.29786
-0.29786
-0.29786
-0.29786
-0.29786
-0.29786
-0.29786
-0.297861
-0.297861
-0.297861
-0.297861
-0.297861
-0.297863
-0.297872
-0.297893
-0.298023
-0.298339
-0.300178
-0.304838
-0.331754
-0.373465
-1
-0.373465
1
0.80718
0.659027
0.550101
0.474363
0.423321
0.389
0.365438
0.348706
0.336384
0.327019
0.319733
0.313978
0.309399
0.305755
0.302878
0.300641
0.298948
0.297718
0.296877
0.296358
0.296095
0.296031
0.29612
0.296303
0.296526
0.296757
0.296975
0.297167
0.297328
0.297459
0.29756
0.297638
0.297695
0.297737
0.297767
0.297789
0.297804
0.297814
0.297821
0.297826
0.297829
0.297831
0.297833
0.297834
0.297835
0.297835
0.297835
0.297836
0.297836
0.297836
0.297836
0.297836
0.297836
0.297836
0.297836
0.297836
0.297836
0.297836
0.297836
0.297836
0.297836
0.297836
0.297836
0.297836
0.297836
0.297836
0.297836
0.297836
0.297836
0.297836
0.297836
0.297836
0.297836
0.297836
0.297836
0.297836
0.297836
0.297836
0.297836
0.297836
0.297836
0.297836
0.297836
0.297836
0.297836
0.297836
0.297836
0.297836
0.297836
0.297837
0.297838
0.297847
0.297868
0.297998
0.298314
0.300153
0.304814
0.331732
0.373452
1
0.373465
1
1.02373
1.02809
1.01223
0.983935
0.950688
0.917729
0.887957
0.86251
0.841468
0.824392
0.810673
0.799707
0.790976
0.784063
0.778648
0.774485
0.771384
0.769184
0.767741
0.766918
0.766585
0.766615
0.766888
0.767333
0.767853
0.768378
0.768863
0.769283
0.76963
0.769905
0.770117
0.770276
0.770392
0.770475
0.770535
0.770576
0.770605
0.770624
0.770638
0.770647
0.770653
0.770658
0.77066
0.770662
0.770664
0.770665
0.770665
0.770666
0.770666
0.770666
0.770666
0.770666
0.770666
0.770666
0.770666
0.770666
0.770666
0.770666
0.770666
0.770666
0.770666
0.770666
0.770666
0.770666
0.770666
0.770666
0.770666
0.770666
0.770666
0.770666
0.770666
0.770666
0.770666
0.770666
0.770666
0.770666
0.770666
0.770666
0.770666
0.770666
0.770666
0.770666
0.770666
0.770666
0.770666
0.770666
0.770666
0.770666
0.770666
0.770666
0.770667
0.77067
0.770676
0.770729
0.770807
0.771647
0.772495
0.785679
0.800875
1
0.800922
1
1.04017
1.08473
1.11989
1.14301
1.15539
1.15973
1.15877
1.15476
1.1493
1.14345
1.13781
1.13272
1.1283
1.12457
1.12152
1.11908
1.11721
1.11584
1.11492
1.11439
1.11418
1.11424
1.11446
1.1148
1.1152
1.11561
1.11601
1.11636
1.11665
1.11689
1.11707
1.11721
1.11731
1.11738
1.11743
1.11746
1.11749
1.1175
1.11751
1.11752
1.11753
1.11753
1.11753
1.11753
1.11753
1.11754
1.11754
1.11754
1.11754
1.11754
1.11754
1.11754
1.11754
1.11754
1.11754
1.11754
1.11754
1.11754
1.11754
1.11754
1.11754
1.11754
1.11754
1.11754
1.11754
1.11754
1.11754
1.11754
1.11754
1.11754
1.11754
1.11754
1.11754
1.11754
1.11754
1.11754
1.11754
1.11754
1.11754
1.11754
1.11754
1.11754
1.11754
1.11754
1.11754
1.11754
1.11754
1.11754
1.11754
1.11754
1.11754
1.11753
1.11753
1.11752
1.11743
1.11732
1.11614
1.11324
1.10888
1
1.10892
1
1.03766
1.08576
1.13255
1.17421
1.20955
1.23861
1.26203
1.28064
1.29531
1.30682
1.31583
1.32289
1.32842
1.33275
1.3361
1.33867
1.34058
1.34194
1.34285
1.3434
1.34366
1.34372
1.34363
1.34344
1.3432
1.34296
1.34273
1.34254
1.34238
1.34226
1.34216
1.34209
1.34204
1.342
1.34198
1.34196
1.34194
1.34194
1.34193
1.34192
1.34192
1.34192
1.34192
1.34192
1.34192
1.34192
1.34192
1.34192
1.34192
1.34192
1.34192
1.34192
1.34192
1.34192
1.34192
1.34192
1.34192
1.34192
1.34192
1.34192
1.34192
1.34192
1.34192
1.34192
1.34192
1.34192
1.34192
1.34192
1.34192
1.34192
1.34192
1.34192
1.34192
1.34192
1.34192
1.34192
1.34192
1.34192
1.34192
1.34192
1.34192
1.34192
1.34191
1.34191
1.34191
1.34191
1.34191
1.34191
1.34191
1.34191
1.34191
1.34191
1.3419
1.34184
1.34175
1.34081
1.33987
1.32416
1.3213
1
1.32128
1
1.03576
1.08266
1.1305
1.17621
1.21854
1.25697
1.29129
1.32149
1.34769
1.37013
1.38912
1.40501
1.41817
1.42894
1.43762
1.44448
1.44973
1.45359
1.45623
1.45783
1.45858
1.45866
1.45826
1.45754
1.45665
1.45571
1.45481
1.45401
1.45332
1.45277
1.45234
1.45201
1.45176
1.45159
1.45147
1.45138
1.45132
1.45128
1.45125
1.45123
1.45122
1.45121
1.4512
1.4512
1.4512
1.45119
1.45119
1.45119
1.45119
1.45119
1.45119
1.45119
1.45119
1.45119
1.45119
1.45119
1.45119
1.45119
1.45119
1.45119
1.45119
1.45119
1.45119
1.45119
1.45119
1.45119
1.45119
1.45119
1.45119
1.45119
1.45119
1.45119
1.45119
1.45119
1.45119
1.45119
1.45119
1.45119
1.45119
1.45119
1.45119
1.45119
1.45119
1.45119
1.45119
1.45119
1.45119
1.45119
1.45119
1.45119
1.45119
1.45118
1.45118
1.45108
1.45105
1.44953
1.44931
1.42626
1.42873
1
1.42865
1
1.03576
1.08266
1.1305
1.17621
1.21854
1.25697
1.29129
1.32149
1.34769
1.37013
1.38912
1.40501
1.41817
1.42894
1.43762
1.44448
1.44974
1.45359
1.45623
1.45783
1.45858
1.45866
1.45826
1.45754
1.45665
1.45571
1.45481
1.45401
1.45332
1.45277
1.45234
1.45201
1.45176
1.45159
1.45146
1.45138
1.45132
1.45128
1.45125
1.45123
1.45122
1.45121
1.4512
1.4512
1.4512
1.45119
1.45119
1.45119
1.45119
1.45119
1.45119
1.45119
1.45119
1.45119
1.45119
1.45119
1.45119
1.45119
1.45119
1.45119
1.45119
1.45119
1.45119
1.45119
1.45119
1.45119
1.45119
1.45119
1.45119
1.45119
1.45119
1.45119
1.45119
1.45119
1.45119
1.45119
1.45119
1.45119
1.45119
1.45119
1.45119
1.45119
1.45119
1.45119
1.45119
1.45119
1.45119
1.45119
1.45119
1.45119
1.45119
1.45118
1.45118
1.45108
1.45105
1.44953
1.44931
1.42626
1.42873
1
1.42865
1
1.03766
1.08576
1.13255
1.17421
1.20955
1.23861
1.26203
1.28064
1.29531
1.30682
1.31584
1.32289
1.32842
1.33275
1.3361
1.33867
1.34058
1.34195
1.34286
1.34341
1.34367
1.34372
1.34363
1.34344
1.3432
1.34296
1.34273
1.34254
1.34238
1.34225
1.34216
1.34209
1.34204
1.342
1.34198
1.34196
1.34194
1.34193
1.34193
1.34192
1.34192
1.34192
1.34192
1.34192
1.34192
1.34192
1.34192
1.34192
1.34192
1.34192
1.34192
1.34192
1.34192
1.34192
1.34192
1.34192
1.34192
1.34192
1.34192
1.34192
1.34192
1.34192
1.34192
1.34192
1.34192
1.34192
1.34192
1.34192
1.34191
1.34191
1.34191
1.34191
1.34191
1.34191
1.34191
1.34191
1.34191
1.34191
1.34191
1.34191
1.34191
1.34191
1.34191
1.34191
1.34191
1.34191
1.34191
1.34191
1.34191
1.34191
1.34191
1.34191
1.3419
1.34184
1.34175
1.34081
1.33986
1.32416
1.3213
1
1.32128
1
1.04017
1.08473
1.11989
1.14301
1.15539
1.15973
1.15877
1.15476
1.1493
1.14345
1.13781
1.13272
1.1283
1.12458
1.12152
1.11909
1.11721
1.11584
1.11492
1.11439
1.11419
1.11424
1.11446
1.1148
1.1152
1.11561
1.11601
1.11636
1.11665
1.11689
1.11707
1.11721
1.11731
1.11738
1.11743
1.11746
1.11749
1.1175
1.11751
1.11752
1.11753
1.11753
1.11753
1.11753
1.11753
1.11754
1.11754
1.11754
1.11754
1.11754
1.11754
1.11754
1.11754
1.11754
1.11754
1.11754
1.11754
1.11754
1.11754
1.11754
1.11754
1.11754
1.11754
1.11754
1.11754
1.11754
1.11754
1.11754
1.11754
1.11754
1.11754
1.11754
1.11754
1.11754
1.11754
1.11754
1.11754
1.11754
1.11754
1.11754
1.11754
1.11754
1.11754
1.11754
1.11754
1.11754
1.11754
1.11754
1.11754
1.11754
1.11753
1.11753
1.11753
1.11752
1.11743
1.11732
1.11614
1.11324
1.10888
1
1.10892
1
1.02373
1.02809
1.01223
0.983935
0.950688
0.917729
0.887957
0.862511
0.841468
0.824393
0.810674
0.799708
0.790977
0.784065
0.77865
0.774489
0.771388
0.769187
0.767744
0.766921
0.766588
0.766617
0.766889
0.767333
0.767853
0.768377
0.768862
0.769282
0.769629
0.769904
0.770116
0.770275
0.770391
0.770475
0.770534
0.770576
0.770604
0.770624
0.770638
0.770647
0.770653
0.770657
0.77066
0.770662
0.770663
0.770664
0.770665
0.770665
0.770666
0.770666
0.770666
0.770666
0.770666
0.770666
0.770666
0.770666
0.770666
0.770666
0.770666
0.770666
0.770666
0.770666
0.770666
0.770666
0.770666
0.770666
0.770666
0.770665
0.770665
0.770665
0.770665
0.770665
0.770665
0.770665
0.770665
0.770665
0.770665
0.770665
0.770665
0.770665
0.770665
0.770665
0.770665
0.770665
0.770665
0.770665
0.770665
0.770665
0.770665
0.770665
0.770666
0.770669
0.770675
0.770728
0.770806
0.771646
0.772494
0.785678
0.800875
1
0.800922
1
0.80718
0.659027
0.550101
0.474363
0.423321
0.389001
0.365439
0.348707
0.336385
0.32702
0.319733
0.313978
0.3094
0.305756
0.302879
0.300643
0.29895
0.297719
0.296878
0.296359
0.296096
0.296031
0.296121
0.296303
0.296526
0.296757
0.296975
0.297167
0.297328
0.297458
0.29756
0.297638
0.297695
0.297737
0.297767
0.297789
0.297804
0.297814
0.297821
0.297826
0.297829
0.297831
0.297833
0.297834
0.297835
0.297835
0.297835
0.297836
0.297836
0.297836
0.297836
0.297836
0.297836
0.297836
0.297836
0.297836
0.297836
0.297836
0.297836
0.297836
0.297836
0.297836
0.297836
0.297836
0.297836
0.297836
0.297836
0.297836
0.297836
0.297836
0.297836
0.297836
0.297836
0.297835
0.297835
0.297835
0.297835
0.297835
0.297835
0.297835
0.297835
0.297835
0.297835
0.297835
0.297835
0.297835
0.297835
0.297835
0.297836
0.297836
0.297838
0.297847
0.297868
0.297998
0.298314
0.300153
0.304814
0.331732
0.373451
1
0.373464
-1
-0.80718
-0.659027
-0.550101
-0.474363
-0.423321
-0.389001
-0.365439
-0.348707
-0.336385
-0.32702
-0.319733
-0.313979
-0.3094
-0.305758
-0.302882
-0.300648
-0.298958
-0.297731
-0.296893
-0.296378
-0.296118
-0.296056
-0.296148
-0.296331
-0.296555
-0.296786
-0.297004
-0.297195
-0.297356
-0.297486
-0.297587
-0.297664
-0.297721
-0.297763
-0.297793
-0.297814
-0.297829
-0.297839
-0.297846
-0.297851
-0.297854
-0.297856
-0.297858
-0.297859
-0.297859
-0.29786
-0.29786
-0.29786
-0.29786
-0.29786
-0.29786
-0.29786
-0.29786
-0.29786
-0.29786
-0.29786
-0.29786
-0.29786
-0.29786
-0.29786
-0.29786
-0.29786
-0.29786
-0.29786
-0.29786
-0.29786
-0.29786
-0.29786
-0.29786
-0.29786
-0.29786
-0.29786
-0.29786
-0.29786
-0.29786
-0.29786
-0.29786
-0.29786
-0.29786
-0.29786
-0.29786
-0.29786
-0.29786
-0.29786
-0.29786
-0.29786
-0.29786
-0.29786
-0.29786
-0.297861
-0.297862
-0.297871
-0.297892
-0.298022
-0.298338
-0.300177
-0.304838
-0.331754
-0.373464
-1
-0.373464
