# vtk DataFile Version 2.0
FlowField
ASCII
DATASET STRUCTURED_GRID
DIMENSIONS 102 13 1 
POINTS 1326 double
0 0 0
0.3 0 0
0.6 0 0
0.9 0 0
1.2 0 0
1.5 0 0
1.8 0 0
2.1 0 0
2.4 0 0
2.7 0 0
3 0 0
3.3 0 0
3.6 0 0
3.9 0 0
4.2 0 0
4.5 0 0
4.8 0 0
5.1 0 0
5.4 0 0
5.7 0 0
6 0 0
6.3 0 0
6.6 0 0
6.9 0 0
7.2 0 0
7.5 0 0
7.8 0 0
8.1 0 0
8.4 0 0
8.7 0 0
9 0 0
9.3 0 0
9.6 0 0
9.9 0 0
10.2 0 0
10.5 0 0
10.8 0 0
11.1 0 0
11.4 0 0
11.7 0 0
12 0 0
12.3 0 0
12.6 0 0
12.9 0 0
13.2 0 0
13.5 0 0
13.8 0 0
14.1 0 0
14.4 0 0
14.7 0 0
15 0 0
15.3 0 0
15.6 0 0
15.9 0 0
16.2 0 0
16.5 0 0
16.8 0 0
17.1 0 0
17.4 0 0
17.7 0 0
18 0 0
18.3 0 0
18.6 0 0
18.9 0 0
19.2 0 0
19.5 0 0
19.8 0 0
20.1 0 0
20.4 0 0
20.7 0 0
21 0 0
21.3 0 0
21.6 0 0
21.9 0 0
22.2 0 0
22.5 0 0
22.8 0 0
23.1 0 0
23.4 0 0
23.7 0 0
24 0 0
24.3 0 0
24.6 0 0
24.9 0 0
25.2 0 0
25.5 0 0
25.8 0 0
26.1 0 0
26.4 0 0
26.7 0 0
27 0 0
27.3 0 0
27.6 0 0
27.9 0 0
28.2 0 0
28.5 0 0
28.8 0 0
29.1 0 0
29.4 0 0
29.7 0 0
30 0 0
30.3 0 0
0 0.1 0
0.3 0.1 0
0.6 0.1 0
0.9 0.1 0
1.2 0.1 0
1.5 0.1 0
1.8 0.1 0
2.1 0.1 0
2.4 0.1 0
2.7 0.1 0
3 0.1 0
3.3 0.1 0
3.6 0.1 0
3.9 0.1 0
4.2 0.1 0
4.5 0.1 0
4.8 0.1 0
5.1 0.1 0
5.4 0.1 0
5.7 0.1 0
6 0.1 0
6.3 0.1 0
6.6 0.1 0
6.9 0.1 0
7.2 0.1 0
7.5 0.1 0
7.8 0.1 0
8.1 0.1 0
8.4 0.1 0
8.7 0.1 0
9 0.1 0
9.3 0.1 0
9.6 0.1 0
9.9 0.1 0
10.2 0.1 0
10.5 0.1 0
10.8 0.1 0
11.1 0.1 0
11.4 0.1 0
11.7 0.1 0
12 0.1 0
12.3 0.1 0
12.6 0.1 0
12.9 0.1 0
13.2 0.1 0
13.5 0.1 0
13.8 0.1 0
14.1 0.1 0
14.4 0.1 0
14.7 0.1 0
15 0.1 0
15.3 0.1 0
15.6 0.1 0
15.9 0.1 0
16.2 0.1 0
16.5 0.1 0
16.8 0.1 0
17.1 0.1 0
17.4 0.1 0
17.7 0.1 0
18 0.1 0
18.3 0.1 0
18.6 0.1 0
18.9 0.1 0
19.2 0.1 0
19.5 0.1 0
19.8 0.1 0
20.1 0.1 0
20.4 0.1 0
20.7 0.1 0
21 0.1 0
21.3 0.1 0
21.6 0.1 0
21.9 0.1 0
22.2 0.1 0
22.5 0.1 0
22.8 0.1 0
23.1 0.1 0
23.4 0.1 0
23.7 0.1 0
24 0.1 0
24.3 0.1 0
24.6 0.1 0
24.9 0.1 0
25.2 0.1 0
25.5 0.1 0
25.8 0.1 0
26.1 0.1 0
26.4 0.1 0
26.7 0.1 0
27 0.1 0
27.3 0.1 0
27.6 0.1 0
27.9 0.1 0
28.2 0.1 0
28.5 0.1 0
28.8 0.1 0
29.1 0.1 0
29.4 0.1 0
29.7 0.1 0
30 0.1 0
30.3 0.1 0
0 0.2 0
0.3 0.2 0
0.6 0.2 0
0.9 0.2 0
1.2 0.2 0
1.5 0.2 0
1.8 0.2 0
2.1 0.2 0
2.4 0.2 0
2.7 0.2 0
3 0.2 0
3.3 0.2 0
3.6 0.2 0
3.9 0.2 0
4.2 0.2 0
4.5 0.2 0
4.8 0.2 0
5.1 0.2 0
5.4 0.2 0
5.7 0.2 0
6 0.2 0
6.3 0.2 0
6.6 0.2 0
6.9 0.2 0
7.2 0.2 0
7.5 0.2 0
7.8 0.2 0
8.1 0.2 0
8.4 0.2 0
8.7 0.2 0
9 0.2 0
9.3 0.2 0
9.6 0.2 0
9.9 0.2 0
10.2 0.2 0
10.5 0.2 0
10.8 0.2 0
11.1 0.2 0
11.4 0.2 0
11.7 0.2 0
12 0.2 0
12.3 0.2 0
12.6 0.2 0
12.9 0.2 0
13.2 0.2 0
13.5 0.2 0
13.8 0.2 0
14.1 0.2 0
14.4 0.2 0
14.7 0.2 0
15 0.2 0
15.3 0.2 0
15.6 0.2 0
15.9 0.2 0
16.2 0.2 0
16.5 0.2 0
16.8 0.2 0
17.1 0.2 0
17.4 0.2 0
17.7 0.2 0
18 0.2 0
18.3 0.2 0
18.6 0.2 0
18.9 0.2 0
19.2 0.2 0
19.5 0.2 0
19.8 0.2 0
20.1 0.2 0
20.4 0.2 0
20.7 0.2 0
21 0.2 0
21.3 0.2 0
21.6 0.2 0
21.9 0.2 0
22.2 0.2 0
22.5 0.2 0
22.8 0.2 0
23.1 0.2 0
23.4 0.2 0
23.7 0.2 0
24 0.2 0
24.3 0.2 0
24.6 0.2 0
24.9 0.2 0
25.2 0.2 0
25.5 0.2 0
25.8 0.2 0
26.1 0.2 0
26.4 0.2 0
26.7 0.2 0
27 0.2 0
27.3 0.2 0
27.6 0.2 0
27.9 0.2 0
28.2 0.2 0
28.5 0.2 0
28.8 0.2 0
29.1 0.2 0
29.4 0.2 0
29.7 0.2 0
30 0.2 0
30.3 0.2 0
0 0.3 0
0.3 0.3 0
0.6 0.3 0
0.9 0.3 0
1.2 0.3 0
1.5 0.3 0
1.8 0.3 0
2.1 0.3 0
2.4 0.3 0
2.7 0.3 0
3 0.3 0
3.3 0.3 0
3.6 0.3 0
3.9 0.3 0
4.2 0.3 0
4.5 0.3 0
4.8 0.3 0
5.1 0.3 0
5.4 0.3 0
5.7 0.3 0
6 0.3 0
6.3 0.3 0
6.6 0.3 0
6.9 0.3 0
7.2 0.3 0
7.5 0.3 0
7.8 0.3 0
8.1 0.3 0
8.4 0.3 0
8.7 0.3 0
9 0.3 0
9.3 0.3 0
9.6 0.3 0
9.9 0.3 0
10.2 0.3 0
10.5 0.3 0
10.8 0.3 0
11.1 0.3 0
11.4 0.3 0
11.7 0.3 0
12 0.3 0
12.3 0.3 0
12.6 0.3 0
12.9 0.3 0
13.2 0.3 0
13.5 0.3 0
13.8 0.3 0
14.1 0.3 0
14.4 0.3 0
14.7 0.3 0
15 0.3 0
15.3 0.3 0
15.6 0.3 0
15.9 0.3 0
16.2 0.3 0
16.5 0.3 0
16.8 0.3 0
17.1 0.3 0
17.4 0.3 0
17.7 0.3 0
18 0.3 0
18.3 0.3 0
18.6 0.3 0
18.9 0.3 0
19.2 0.3 0
19.5 0.3 0
19.8 0.3 0
20.1 0.3 0
20.4 0.3 0
20.7 0.3 0
21 0.3 0
21.3 0.3 0
21.6 0.3 0
21.9 0.3 0
22.2 0.3 0
22.5 0.3 0
22.8 0.3 0
23.1 0.3 0
23.4 0.3 0
23.7 0.3 0
24 0.3 0
24.3 0.3 0
24.6 0.3 0
24.9 0.3 0
25.2 0.3 0
25.5 0.3 0
25.8 0.3 0
26.1 0.3 0
26.4 0.3 0
26.7 0.3 0
27 0.3 0
27.3 0.3 0
27.6 0.3 0
27.9 0.3 0
28.2 0.3 0
28.5 0.3 0
28.8 0.3 0
29.1 0.3 0
29.4 0.3 0
29.7 0.3 0
30 0.3 0
30.3 0.3 0
0 0.4 0
0.3 0.4 0
0.6 0.4 0
0.9 0.4 0
1.2 0.4 0
1.5 0.4 0
1.8 0.4 0
2.1 0.4 0
2.4 0.4 0
2.7 0.4 0
3 0.4 0
3.3 0.4 0
3.6 0.4 0
3.9 0.4 0
4.2 0.4 0
4.5 0.4 0
4.8 0.4 0
5.1 0.4 0
5.4 0.4 0
5.7 0.4 0
6 0.4 0
6.3 0.4 0
6.6 0.4 0
6.9 0.4 0
7.2 0.4 0
7.5 0.4 0
7.8 0.4 0
8.1 0.4 0
8.4 0.4 0
8.7 0.4 0
9 0.4 0
9.3 0.4 0
9.6 0.4 0
9.9 0.4 0
10.2 0.4 0
10.5 0.4 0
10.8 0.4 0
11.1 0.4 0
11.4 0.4 0
11.7 0.4 0
12 0.4 0
12.3 0.4 0
12.6 0.4 0
12.9 0.4 0
13.2 0.4 0
13.5 0.4 0
13.8 0.4 0
14.1 0.4 0
14.4 0.4 0
14.7 0.4 0
15 0.4 0
15.3 0.4 0
15.6 0.4 0
15.9 0.4 0
16.2 0.4 0
16.5 0.4 0
16.8 0.4 0
17.1 0.4 0
17.4 0.4 0
17.7 0.4 0
18 0.4 0
18.3 0.4 0
18.6 0.4 0
18.9 0.4 0
19.2 0.4 0
19.5 0.4 0
19.8 0.4 0
20.1 0.4 0
20.4 0.4 0
20.7 0.4 0
21 0.4 0
21.3 0.4 0
21.6 0.4 0
21.9 0.4 0
22.2 0.4 0
22.5 0.4 0
22.8 0.4 0
23.1 0.4 0
23.4 0.4 0
23.7 0.4 0
24 0.4 0
24.3 0.4 0
24.6 0.4 0
24.9 0.4 0
25.2 0.4 0
25.5 0.4 0
25.8 0.4 0
26.1 0.4 0
26.4 0.4 0
26.7 0.4 0
27 0.4 0
27.3 0.4 0
27.6 0.4 0
27.9 0.4 0
28.2 0.4 0
28.5 0.4 0
28.8 0.4 0
29.1 0.4 0
29.4 0.4 0
29.7 0.4 0
30 0.4 0
30.3 0.4 0
0 0.5 0
0.3 0.5 0
0.6 0.5 0
0.9 0.5 0
1.2 0.5 0
1.5 0.5 0
1.8 0.5 0
2.1 0.5 0
2.4 0.5 0
2.7 0.5 0
3 0.5 0
3.3 0.5 0
3.6 0.5 0
3.9 0.5 0
4.2 0.5 0
4.5 0.5 0
4.8 0.5 0
5.1 0.5 0
5.4 0.5 0
5.7 0.5 0
6 0.5 0
6.3 0.5 0
6.6 0.5 0
6.9 0.5 0
7.2 0.5 0
7.5 0.5 0
7.8 0.5 0
8.1 0.5 0
8.4 0.5 0
8.7 0.5 0
9 0.5 0
9.3 0.5 0
9.6 0.5 0
9.9 0.5 0
10.2 0.5 0
10.5 0.5 0
10.8 0.5 0
11.1 0.5 0
11.4 0.5 0
11.7 0.5 0
12 0.5 0
12.3 0.5 0
12.6 0.5 0
12.9 0.5 0
13.2 0.5 0
13.5 0.5 0
13.8 0.5 0
14.1 0.5 0
14.4 0.5 0
14.7 0.5 0
15 0.5 0
15.3 0.5 0
15.6 0.5 0
15.9 0.5 0
16.2 0.5 0
16.5 0.5 0
16.8 0.5 0
17.1 0.5 0
17.4 0.5 0
17.7 0.5 0
18 0.5 0
18.3 0.5 0
18.6 0.5 0
18.9 0.5 0
19.2 0.5 0
19.5 0.5 0
19.8 0.5 0
20.1 0.5 0
20.4 0.5 0
20.7 0.5 0
21 0.5 0
21.3 0.5 0
21.6 0.5 0
21.9 0.5 0
22.2 0.5 0
22.5 0.5 0
22.8 0.5 0
23.1 0.5 0
23.4 0.5 0
23.7 0.5 0
24 0.5 0
24.3 0.5 0
24.6 0.5 0
24.9 0.5 0
25.2 0.5 0
25.5 0.5 0
25.8 0.5 0
26.1 0.5 0
26.4 0.5 0
26.7 0.5 0
27 0.5 0
27.3 0.5 0
27.6 0.5 0
27.9 0.5 0
28.2 0.5 0
28.5 0.5 0
28.8 0.5 0
29.1 0.5 0
29.4 0.5 0
29.7 0.5 0
30 0.5 0
30.3 0.5 0
0 0.6 0
0.3 0.6 0
0.6 0.6 0
0.9 0.6 0
1.2 0.6 0
1.5 0.6 0
1.8 0.6 0
2.1 0.6 0
2.4 0.6 0
2.7 0.6 0
3 0.6 0
3.3 0.6 0
3.6 0.6 0
3.9 0.6 0
4.2 0.6 0
4.5 0.6 0
4.8 0.6 0
5.1 0.6 0
5.4 0.6 0
5.7 0.6 0
6 0.6 0
6.3 0.6 0
6.6 0.6 0
6.9 0.6 0
7.2 0.6 0
7.5 0.6 0
7.8 0.6 0
8.1 0.6 0
8.4 0.6 0
8.7 0.6 0
9 0.6 0
9.3 0.6 0
9.6 0.6 0
9.9 0.6 0
10.2 0.6 0
10.5 0.6 0
10.8 0.6 0
11.1 0.6 0
11.4 0.6 0
11.7 0.6 0
12 0.6 0
12.3 0.6 0
12.6 0.6 0
12.9 0.6 0
13.2 0.6 0
13.5 0.6 0
13.8 0.6 0
14.1 0.6 0
14.4 0.6 0
14.7 0.6 0
15 0.6 0
15.3 0.6 0
15.6 0.6 0
15.9 0.6 0
16.2 0.6 0
16.5 0.6 0
16.8 0.6 0
17.1 0.6 0
17.4 0.6 0
17.7 0.6 0
18 0.6 0
18.3 0.6 0
18.6 0.6 0
18.9 0.6 0
19.2 0.6 0
19.5 0.6 0
19.8 0.6 0
20.1 0.6 0
20.4 0.6 0
20.7 0.6 0
21 0.6 0
21.3 0.6 0
21.6 0.6 0
21.9 0.6 0
22.2 0.6 0
22.5 0.6 0
22.8 0.6 0
23.1 0.6 0
23.4 0.6 0
23.7 0.6 0
24 0.6 0
24.3 0.6 0
24.6 0.6 0
24.9 0.6 0
25.2 0.6 0
25.5 0.6 0
25.8 0.6 0
26.1 0.6 0
26.4 0.6 0
26.7 0.6 0
27 0.6 0
27.3 0.6 0
27.6 0.6 0
27.9 0.6 0
28.2 0.6 0
28.5 0.6 0
28.8 0.6 0
29.1 0.6 0
29.4 0.6 0
29.7 0.6 0
30 0.6 0
30.3 0.6 0
0 0.7 0
0.3 0.7 0
0.6 0.7 0
0.9 0.7 0
1.2 0.7 0
1.5 0.7 0
1.8 0.7 0
2.1 0.7 0
2.4 0.7 0
2.7 0.7 0
3 0.7 0
3.3 0.7 0
3.6 0.7 0
3.9 0.7 0
4.2 0.7 0
4.5 0.7 0
4.8 0.7 0
5.1 0.7 0
5.4 0.7 0
5.7 0.7 0
6 0.7 0
6.3 0.7 0
6.6 0.7 0
6.9 0.7 0
7.2 0.7 0
7.5 0.7 0
7.8 0.7 0
8.1 0.7 0
8.4 0.7 0
8.7 0.7 0
9 0.7 0
9.3 0.7 0
9.6 0.7 0
9.9 0.7 0
10.2 0.7 0
10.5 0.7 0
10.8 0.7 0
11.1 0.7 0
11.4 0.7 0
11.7 0.7 0
12 0.7 0
12.3 0.7 0
12.6 0.7 0
12.9 0.7 0
13.2 0.7 0
13.5 0.7 0
13.8 0.7 0
14.1 0.7 0
14.4 0.7 0
14.7 0.7 0
15 0.7 0
15.3 0.7 0
15.6 0.7 0
15.9 0.7 0
16.2 0.7 0
16.5 0.7 0
16.8 0.7 0
17.1 0.7 0
17.4 0.7 0
17.7 0.7 0
18 0.7 0
18.3 0.7 0
18.6 0.7 0
18.9 0.7 0
19.2 0.7 0
19.5 0.7 0
19.8 0.7 0
20.1 0.7 0
20.4 0.7 0
20.7 0.7 0
21 0.7 0
21.3 0.7 0
21.6 0.7 0
21.9 0.7 0
22.2 0.7 0
22.5 0.7 0
22.8 0.7 0
23.1 0.7 0
23.4 0.7 0
23.7 0.7 0
24 0.7 0
24.3 0.7 0
24.6 0.7 0
24.9 0.7 0
25.2 0.7 0
25.5 0.7 0
25.8 0.7 0
26.1 0.7 0
26.4 0.7 0
26.7 0.7 0
27 0.7 0
27.3 0.7 0
27.6 0.7 0
27.9 0.7 0
28.2 0.7 0
28.5 0.7 0
28.8 0.7 0
29.1 0.7 0
29.4 0.7 0
29.7 0.7 0
30 0.7 0
30.3 0.7 0
0 0.8 0
0.3 0.8 0
0.6 0.8 0
0.9 0.8 0
1.2 0.8 0
1.5 0.8 0
1.8 0.8 0
2.1 0.8 0
2.4 0.8 0
2.7 0.8 0
3 0.8 0
3.3 0.8 0
3.6 0.8 0
3.9 0.8 0
4.2 0.8 0
4.5 0.8 0
4.8 0.8 0
5.1 0.8 0
5.4 0.8 0
5.7 0.8 0
6 0.8 0
6.3 0.8 0
6.6 0.8 0
6.9 0.8 0
7.2 0.8 0
7.5 0.8 0
7.8 0.8 0
8.1 0.8 0
8.4 0.8 0
8.7 0.8 0
9 0.8 0
9.3 0.8 0
9.6 0.8 0
9.9 0.8 0
10.2 0.8 0
10.5 0.8 0
10.8 0.8 0
11.1 0.8 0
11.4 0.8 0
11.7 0.8 0
12 0.8 0
12.3 0.8 0
12.6 0.8 0
12.9 0.8 0
13.2 0.8 0
13.5 0.8 0
13.8 0.8 0
14.1 0.8 0
14.4 0.8 0
14.7 0.8 0
15 0.8 0
15.3 0.8 0
15.6 0.8 0
15.9 0.8 0
16.2 0.8 0
16.5 0.8 0
16.8 0.8 0
17.1 0.8 0
17.4 0.8 0
17.7 0.8 0
18 0.8 0
18.3 0.8 0
18.6 0.8 0
18.9 0.8 0
19.2 0.8 0
19.5 0.8 0
19.8 0.8 0
20.1 0.8 0
20.4 0.8 0
20.7 0.8 0
21 0.8 0
21.3 0.8 0
21.6 0.8 0
21.9 0.8 0
22.2 0.8 0
22.5 0.8 0
22.8 0.8 0
23.1 0.8 0
23.4 0.8 0
23.7 0.8 0
24 0.8 0
24.3 0.8 0
24.6 0.8 0
24.9 0.8 0
25.2 0.8 0
25.5 0.8 0
25.8 0.8 0
26.1 0.8 0
26.4 0.8 0
26.7 0.8 0
27 0.8 0
27.3 0.8 0
27.6 0.8 0
27.9 0.8 0
28.2 0.8 0
28.5 0.8 0
28.8 0.8 0
29.1 0.8 0
29.4 0.8 0
29.7 0.8 0
30 0.8 0
30.3 0.8 0
0 0.9 0
0.3 0.9 0
0.6 0.9 0
0.9 0.9 0
1.2 0.9 0
1.5 0.9 0
1.8 0.9 0
2.1 0.9 0
2.4 0.9 0
2.7 0.9 0
3 0.9 0
3.3 0.9 0
3.6 0.9 0
3.9 0.9 0
4.2 0.9 0
4.5 0.9 0
4.8 0.9 0
5.1 0.9 0
5.4 0.9 0
5.7 0.9 0
6 0.9 0
6.3 0.9 0
6.6 0.9 0
6.9 0.9 0
7.2 0.9 0
7.5 0.9 0
7.8 0.9 0
8.1 0.9 0
8.4 0.9 0
8.7 0.9 0
9 0.9 0
9.3 0.9 0
9.6 0.9 0
9.9 0.9 0
10.2 0.9 0
10.5 0.9 0
10.8 0.9 0
11.1 0.9 0
11.4 0.9 0
11.7 0.9 0
12 0.9 0
12.3 0.9 0
12.6 0.9 0
12.9 0.9 0
13.2 0.9 0
13.5 0.9 0
13.8 0.9 0
14.1 0.9 0
14.4 0.9 0
14.7 0.9 0
15 0.9 0
15.3 0.9 0
15.6 0.9 0
15.9 0.9 0
16.2 0.9 0
16.5 0.9 0
16.8 0.9 0
17.1 0.9 0
17.4 0.9 0
17.7 0.9 0
18 0.9 0
18.3 0.9 0
18.6 0.9 0
18.9 0.9 0
19.2 0.9 0
19.5 0.9 0
19.8 0.9 0
20.1 0.9 0
20.4 0.9 0
20.7 0.9 0
21 0.9 0
21.3 0.9 0
21.6 0.9 0
21.9 0.9 0
22.2 0.9 0
22.5 0.9 0
22.8 0.9 0
23.1 0.9 0
23.4 0.9 0
23.7 0.9 0
24 0.9 0
24.3 0.9 0
24.6 0.9 0
24.9 0.9 0
25.2 0.9 0
25.5 0.9 0
25.8 0.9 0
26.1 0.9 0
26.4 0.9 0
26.7 0.9 0
27 0.9 0
27.3 0.9 0
27.6 0.9 0
27.9 0.9 0
28.2 0.9 0
28.5 0.9 0
28.8 0.9 0
29.1 0.9 0
29.4 0.9 0
29.7 0.9 0
30 0.9 0
30.3 0.9 0
0 1 0
0.3 1 0
0.6 1 0
0.9 1 0
1.2 1 0
1.5 1 0
1.8 1 0
2.1 1 0
2.4 1 0
2.7 1 0
3 1 0
3.3 1 0
3.6 1 0
3.9 1 0
4.2 1 0
4.5 1 0
4.8 1 0
5.1 1 0
5.4 1 0
5.7 1 0
6 1 0
6.3 1 0
6.6 1 0
6.9 1 0
7.2 1 0
7.5 1 0
7.8 1 0
8.1 1 0
8.4 1 0
8.7 1 0
9 1 0
9.3 1 0
9.6 1 0
9.9 1 0
10.2 1 0
10.5 1 0
10.8 1 0
11.1 1 0
11.4 1 0
11.7 1 0
12 1 0
12.3 1 0
12.6 1 0
12.9 1 0
13.2 1 0
13.5 1 0
13.8 1 0
14.1 1 0
14.4 1 0
14.7 1 0
15 1 0
15.3 1 0
15.6 1 0
15.9 1 0
16.2 1 0
16.5 1 0
16.8 1 0
17.1 1 0
17.4 1 0
17.7 1 0
18 1 0
18.3 1 0
18.6 1 0
18.9 1 0
19.2 1 0
19.5 1 0
19.8 1 0
20.1 1 0
20.4 1 0
20.7 1 0
21 1 0
21.3 1 0
21.6 1 0
21.9 1 0
22.2 1 0
22.5 1 0
22.8 1 0
23.1 1 0
23.4 1 0
23.7 1 0
24 1 0
24.3 1 0
24.6 1 0
24.9 1 0
25.2 1 0
25.5 1 0
25.8 1 0
26.1 1 0
26.4 1 0
26.7 1 0
27 1 0
27.3 1 0
27.6 1 0
27.9 1 0
28.2 1 0
28.5 1 0
28.8 1 0
29.1 1 0
29.4 1 0
29.7 1 0
30 1 0
30.3 1 0
0 1.1 0
0.3 1.1 0
0.6 1.1 0
0.9 1.1 0
1.2 1.1 0
1.5 1.1 0
1.8 1.1 0
2.1 1.1 0
2.4 1.1 0
2.7 1.1 0
3 1.1 0
3.3 1.1 0
3.6 1.1 0
3.9 1.1 0
4.2 1.1 0
4.5 1.1 0
4.8 1.1 0
5.1 1.1 0
5.4 1.1 0
5.7 1.1 0
6 1.1 0
6.3 1.1 0
6.6 1.1 0
6.9 1.1 0
7.2 1.1 0
7.5 1.1 0
7.8 1.1 0
8.1 1.1 0
8.4 1.1 0
8.7 1.1 0
9 1.1 0
9.3 1.1 0
9.6 1.1 0
9.9 1.1 0
10.2 1.1 0
10.5 1.1 0
10.8 1.1 0
11.1 1.1 0
11.4 1.1 0
11.7 1.1 0
12 1.1 0
12.3 1.1 0
12.6 1.1 0
12.9 1.1 0
13.2 1.1 0
13.5 1.1 0
13.8 1.1 0
14.1 1.1 0
14.4 1.1 0
14.7 1.1 0
15 1.1 0
15.3 1.1 0
15.6 1.1 0
15.9 1.1 0
16.2 1.1 0
16.5 1.1 0
16.8 1.1 0
17.1 1.1 0
17.4 1.1 0
17.7 1.1 0
18 1.1 0
18.3 1.1 0
18.6 1.1 0
18.9 1.1 0
19.2 1.1 0
19.5 1.1 0
19.8 1.1 0
20.1 1.1 0
20.4 1.1 0
20.7 1.1 0
21 1.1 0
21.3 1.1 0
21.6 1.1 0
21.9 1.1 0
22.2 1.1 0
22.5 1.1 0
22.8 1.1 0
23.1 1.1 0
23.4 1.1 0
23.7 1.1 0
24 1.1 0
24.3 1.1 0
24.6 1.1 0
24.9 1.1 0
25.2 1.1 0
25.5 1.1 0
25.8 1.1 0
26.1 1.1 0
26.4 1.1 0
26.7 1.1 0
27 1.1 0
27.3 1.1 0
27.6 1.1 0
27.9 1.1 0
28.2 1.1 0
28.5 1.1 0
28.8 1.1 0
29.1 1.1 0
29.4 1.1 0
29.7 1.1 0
30 1.1 0
30.3 1.1 0
0 1.2 0
0.3 1.2 0
0.6 1.2 0
0.9 1.2 0
1.2 1.2 0
1.5 1.2 0
1.8 1.2 0
2.1 1.2 0
2.4 1.2 0
2.7 1.2 0
3 1.2 0
3.3 1.2 0
3.6 1.2 0
3.9 1.2 0
4.2 1.2 0
4.5 1.2 0
4.8 1.2 0
5.1 1.2 0
5.4 1.2 0
5.7 1.2 0
6 1.2 0
6.3 1.2 0
6.6 1.2 0
6.9 1.2 0
7.2 1.2 0
7.5 1.2 0
7.8 1.2 0
8.1 1.2 0
8.4 1.2 0
8.7 1.2 0
9 1.2 0
9.3 1.2 0
9.6 1.2 0
9.9 1.2 0
10.2 1.2 0
10.5 1.2 0
10.8 1.2 0
11.1 1.2 0
11.4 1.2 0
11.7 1.2 0
12 1.2 0
12.3 1.2 0
12.6 1.2 0
12.9 1.2 0
13.2 1.2 0
13.5 1.2 0
13.8 1.2 0
14.1 1.2 0
14.4 1.2 0
14.7 1.2 0
15 1.2 0
15.3 1.2 0
15.6 1.2 0
15.9 1.2 0
16.2 1.2 0
16.5 1.2 0
16.8 1.2 0
17.1 1.2 0
17.4 1.2 0
17.7 1.2 0
18 1.2 0
18.3 1.2 0
18.6 1.2 0
18.9 1.2 0
19.2 1.2 0
19.5 1.2 0
19.8 1.2 0
20.1 1.2 0
20.4 1.2 0
20.7 1.2 0
21 1.2 0
21.3 1.2 0
21.6 1.2 0
21.9 1.2 0
22.2 1.2 0
22.5 1.2 0
22.8 1.2 0
23.1 1.2 0
23.4 1.2 0
23.7 1.2 0
24 1.2 0
24.3 1.2 0
24.6 1.2 0
24.9 1.2 0
25.2 1.2 0
25.5 1.2 0
25.8 1.2 0
26.1 1.2 0
26.4 1.2 0
26.7 1.2 0
27 1.2 0
27.3 1.2 0
27.6 1.2 0
27.9 1.2 0
28.2 1.2 0
28.5 1.2 0
28.8 1.2 0
29.1 1.2 0
29.4 1.2 0
29.7 1.2 0
30 1.2 0
30.3 1.2 0

POINT_DATA 1326

SCALARS u double
LOOKUP_TABLE default
-1
-0.88876
-0.771421
-0.670527
-0.588769
-0.524805
-0.475963
-0.439215
-0.411696
-0.390985
-0.375178
-0.362869
-0.353049
-0.345017
-0.338292
-0.332544
-0.327544
-0.323134
-0.3192
-0.315662
-0.312456
-0.309535
-0.306863
-0.304408
-0.302147
-0.300058
-0.298124
-0.296329
-0.29466
-0.293106
-0.291657
-0.290303
-0.289037
-0.287852
-0.286741
-0.285697
-0.284717
-0.283796
-0.28293
-0.282116
-0.281352
-0.280638
-0.279972
-0.279353
-0.278783
-0.278261
-0.277788
-0.277361
-0.276982
-0.276648
-0.276357
-0.276106
-0.275893
-0.275714
-0.275566
-0.275444
-0.275346
-0.275268
-0.275206
-0.275158
-0.275121
-0.275093
-0.275072
-0.275057
-0.275045
-0.275037
-0.275031
-0.275027
-0.275024
-0.275022
-0.275021
-0.27502
-0.275019
-0.275019
-0.275018
-0.275018
-0.275018
-0.275018
-0.275018
-0.275018
-0.275018
-0.275018
-0.275018
-0.275018
-0.275018
-0.275018
-0.275018
-0.275018
-0.275018
-0.275018
-0.275018
-0.275018
-0.275018
-0.275018
-0.275018
-0.275018
-0.275018
-0.275019
-0.275021
-0.27502
-0.27502
-1
1
0.88876
0.771421
0.670527
0.588769
0.524805
0.475963
0.439215
0.411696
0.390985
0.375178
0.362869
0.353049
0.345017
0.338292
0.332544
0.327544
0.323134
0.3192
0.315662
0.312456
0.309535
0.306863
0.304408
0.302147
0.300058
0.298124
0.296329
0.29466
0.293106
0.291657
0.290303
0.289037
0.287852
0.286741
0.285697
0.284717
0.283796
0.28293
0.282116
0.281352
0.280638
0.279972
0.279353
0.278783
0.278261
0.277788
0.277361
0.276982
0.276648
0.276357
0.276106
0.275893
0.275714
0.275566
0.275444
0.275346
0.275268
0.275206
0.275158
0.275121
0.275093
0.275072
0.275057
0.275045
0.275037
0.275031
0.275027
0.275024
0.275022
0.275021
0.27502
0.275019
0.275019
0.275018
0.275018
0.275018
0.275018
0.275018
0.275018
0.275018
0.275018
0.275018
0.275018
0.275018
0.275018
0.275018
0.275018
0.275018
0.275018
0.275018
0.275018
0.275018
0.275018
0.275018
0.275018
0.275018
0.275019
0.275021
0.27502
0.27502
1
1
1.02648
1.02759
1.01578
0.998001
0.977893
0.957443
0.937721
0.919251
0.902242
0.886726
0.872643
0.859893
0.848355
0.837908
0.828437
0.819836
0.812006
0.804863
0.79833
0.792341
0.786837
0.781769
0.777091
0.772764
0.768755
0.765034
0.761574
0.758353
0.755349
0.752545
0.749924
0.747471
0.745173
0.743019
0.740997
0.739099
0.737318
0.735646
0.734078
0.732613
0.731246
0.729976
0.728804
0.727727
0.726747
0.725861
0.725068
0.724366
0.723751
0.723218
0.722761
0.722375
0.722052
0.721785
0.721568
0.721393
0.721254
0.721146
0.721061
0.720997
0.720948
0.720912
0.720885
0.720865
0.720851
0.720841
0.720834
0.720829
0.720826
0.720824
0.720822
0.720821
0.72082
0.72082
0.72082
0.720819
0.720819
0.720819
0.720819
0.720819
0.720819
0.720819
0.720819
0.720819
0.720819
0.720819
0.720819
0.720819
0.720819
0.720819
0.720819
0.720819
0.720819
0.720819
0.720819
0.720819
0.720821
0.720821
0.720841
0.720841
1
1
1.03148
1.06334
1.08875
1.10753
1.1205
1.12878
1.13347
1.13551
1.13567
1.13453
1.13251
1.12991
1.12695
1.12378
1.12051
1.11721
1.11394
1.11073
1.10761
1.10459
1.10169
1.0989
1.09625
1.09371
1.0913
1.08901
1.08684
1.08478
1.08282
1.08098
1.07923
1.07757
1.076
1.07452
1.07312
1.0718
1.07055
1.06937
1.06826
1.06722
1.06624
1.06532
1.06447
1.06368
1.06295
1.06229
1.06168
1.06114
1.06066
1.06023
1.05986
1.05955
1.05927
1.05905
1.05886
1.0587
1.05858
1.05848
1.0584
1.05834
1.05829
1.05825
1.05823
1.05821
1.05819
1.05818
1.05817
1.05817
1.05816
1.05816
1.05816
1.05816
1.05816
1.05816
1.05816
1.05816
1.05816
1.05816
1.05816
1.05816
1.05816
1.05816
1.05816
1.05816
1.05816
1.05816
1.05816
1.05816
1.05816
1.05816
1.05816
1.05816
1.05816
1.05816
1.05816
1.05816
1.05816
1.05816
1.05818
1.05818
1
1
1.02429
1.05912
1.09356
1.12437
1.15061
1.17234
1.19008
1.2045
1.21627
1.22596
1.23403
1.24081
1.24658
1.25152
1.2558
1.25951
1.26276
1.26561
1.26812
1.27034
1.2723
1.27405
1.27561
1.27701
1.27826
1.27938
1.28039
1.28131
1.28213
1.28289
1.28357
1.2842
1.28477
1.2853
1.28578
1.28622
1.28663
1.28701
1.28736
1.28768
1.28798
1.28824
1.28848
1.2887
1.28889
1.28906
1.2892
1.28932
1.28942
1.2895
1.28956
1.2896
1.28964
1.28966
1.28968
1.28969
1.28969
1.28969
1.28969
1.28969
1.28969
1.28968
1.28968
1.28968
1.28968
1.28967
1.28967
1.28967
1.28967
1.28967
1.28967
1.28967
1.28967
1.28967
1.28967
1.28967
1.28967
1.28967
1.28967
1.28967
1.28967
1.28967
1.28967
1.28967
1.28967
1.28967
1.28967
1.28967
1.28967
1.28967
1.28967
1.28967
1.28967
1.28967
1.28967
1.28967
1.28967
1.28967
1.28967
1.28967
1
1
1.01979
1.05308
1.08837
1.1216
1.15133
1.17726
1.19964
1.21895
1.23573
1.25048
1.26359
1.27537
1.28606
1.29583
1.30481
1.31311
1.32079
1.32793
1.33458
1.34077
1.34656
1.35196
1.35702
1.36175
1.36619
1.37035
1.37426
1.37792
1.38137
1.3846
1.38765
1.39052
1.39321
1.39575
1.39815
1.4004
1.40253
1.40453
1.40641
1.40818
1.40984
1.41138
1.41281
1.41414
1.41535
1.41645
1.41745
1.41834
1.41913
1.41982
1.42042
1.42093
1.42136
1.42173
1.42203
1.42227
1.42246
1.42262
1.42274
1.42284
1.42291
1.42296
1.423
1.42303
1.42306
1.42307
1.42308
1.42309
1.4231
1.4231
1.4231
1.4231
1.42311
1.42311
1.42311
1.42311
1.42311
1.42311
1.42311
1.42311
1.42311
1.42311
1.42311
1.42311
1.42311
1.42311
1.42311
1.42311
1.42311
1.42311
1.42311
1.42311
1.42311
1.42311
1.42311
1.42311
1.42311
1.42311
1.42309
1.42309
1
1
1.01839
1.05092
1.08603
1.11947
1.14972
1.17641
1.19975
1.22017
1.23818
1.25424
1.26873
1.28194
1.29409
1.30534
1.3158
1.32558
1.33474
1.34334
1.35142
1.35901
1.36617
1.3729
1.37925
1.38524
1.39088
1.3962
1.40122
1.40597
1.41044
1.41466
1.41865
1.42242
1.42598
1.42934
1.43251
1.43552
1.43835
1.44102
1.44354
1.44592
1.44814
1.45022
1.45216
1.45395
1.4556
1.45711
1.45848
1.4597
1.46079
1.46175
1.46259
1.46331
1.46392
1.46443
1.46486
1.46522
1.4655
1.46573
1.46591
1.46605
1.46616
1.46625
1.46631
1.46636
1.46639
1.46642
1.46643
1.46645
1.46645
1.46646
1.46647
1.46647
1.46647
1.46647
1.46647
1.46647
1.46647
1.46647
1.46647
1.46647
1.46647
1.46647
1.46647
1.46647
1.46647
1.46647
1.46647
1.46647
1.46647
1.46647
1.46647
1.46647
1.46647
1.46647
1.46647
1.46647
1.46647
1.46647
1.46644
1.46644
1
1
1.01979
1.05308
1.08837
1.1216
1.15133
1.17726
1.19964
1.21895
1.23573
1.25048
1.26359
1.27537
1.28606
1.29583
1.30481
1.31311
1.32079
1.32793
1.33458
1.34077
1.34656
1.35196
1.35702
1.36175
1.36619
1.37035
1.37426
1.37792
1.38137
1.3846
1.38765
1.39052
1.39321
1.39575
1.39815
1.4004
1.40253
1.40453
1.40641
1.40818
1.40984
1.41138
1.41281
1.41414
1.41535
1.41646
1.41745
1.41834
1.41913
1.41982
1.42042
1.42093
1.42137
1.42173
1.42203
1.42227
1.42246
1.42262
1.42274
1.42284
1.42291
1.42296
1.423
1.42303
1.42306
1.42307
1.42308
1.42309
1.4231
1.4231
1.4231
1.4231
1.42311
1.42311
1.42311
1.42311
1.42311
1.42311
1.42311
1.42311
1.42311
1.42311
1.42311
1.42311
1.42311
1.42311
1.42311
1.42311
1.42311
1.42311
1.42311
1.42311
1.42311
1.42311
1.42311
1.42311
1.42311
1.42311
1.42309
1.42309
1
1
1.02429
1.05912
1.09356
1.12437
1.15061
1.17234
1.19008
1.2045
1.21627
1.22596
1.23403
1.24081
1.24658
1.25152
1.2558
1.25951
1.26276
1.26561
1.26812
1.27034
1.2723
1.27405
1.27561
1.27701
1.27826
1.27938
1.28039
1.28131
1.28214
1.28289
1.28357
1.2842
1.28477
1.2853
1.28578
1.28622
1.28663
1.28701
1.28736
1.28768
1.28798
1.28824
1.28849
1.2887
1.28889
1.28906
1.2892
1.28932
1.28942
1.2895
1.28956
1.2896
1.28964
1.28966
1.28968
1.28969
1.28969
1.28969
1.28969
1.28969
1.28969
1.28968
1.28968
1.28968
1.28968
1.28967
1.28967
1.28967
1.28967
1.28967
1.28967
1.28967
1.28967
1.28967
1.28967
1.28967
1.28967
1.28967
1.28967
1.28967
1.28967
1.28967
1.28967
1.28967
1.28967
1.28967
1.28967
1.28967
1.28967
1.28967
1.28967
1.28967
1.28967
1.28967
1.28967
1.28967
1.28967
1.28967
1.28967
1.28967
1
1
1.03148
1.06334
1.08875
1.10753
1.1205
1.12878
1.13347
1.13551
1.13567
1.13453
1.13251
1.12991
1.12695
1.12378
1.12051
1.11721
1.11394
1.11073
1.10761
1.10459
1.10169
1.09891
1.09625
1.09371
1.0913
1.08901
1.08684
1.08478
1.08283
1.08098
1.07923
1.07757
1.076
1.07452
1.07312
1.0718
1.07055
1.06937
1.06826
1.06722
1.06624
1.06532
1.06447
1.06368
1.06295
1.06229
1.06168
1.06114
1.06066
1.06024
1.05987
1.05955
1.05928
1.05905
1.05886
1.0587
1.05858
1.05848
1.0584
1.05834
1.05829
1.05825
1.05823
1.05821
1.05819
1.05818
1.05817
1.05817
1.05817
1.05816
1.05816
1.05816
1.05816
1.05816
1.05816
1.05816
1.05816
1.05816
1.05816
1.05816
1.05816
1.05816
1.05816
1.05816
1.05816
1.05816
1.05816
1.05816
1.05816
1.05816
1.05816
1.05816
1.05816
1.05816
1.05816
1.05816
1.05816
1.05816
1.05818
1.05818
1
1
1.02648
1.02759
1.01578
0.998002
0.977893
0.957443
0.937721
0.919252
0.902242
0.886726
0.872644
0.859893
0.848355
0.837909
0.828438
0.819836
0.812006
0.804863
0.79833
0.792341
0.786838
0.781769
0.777091
0.772765
0.768756
0.765035
0.761575
0.758354
0.75535
0.752546
0.749925
0.747472
0.745174
0.743019
0.740998
0.7391
0.737318
0.735647
0.734079
0.732614
0.731247
0.729977
0.728804
0.727728
0.726748
0.725862
0.725069
0.724367
0.723752
0.723219
0.722762
0.722376
0.722053
0.721786
0.721569
0.721394
0.721255
0.721147
0.721062
0.720998
0.720949
0.720912
0.720886
0.720866
0.720852
0.720842
0.720835
0.72083
0.720827
0.720824
0.720823
0.720822
0.720821
0.72082
0.72082
0.72082
0.72082
0.72082
0.72082
0.72082
0.72082
0.72082
0.720819
0.720819
0.720819
0.720819
0.720819
0.720819
0.720819
0.720819
0.720819
0.720819
0.720819
0.720819
0.720819
0.720819
0.720821
0.720821
0.720841
0.720841
1
1
0.88876
0.771421
0.670527
0.588769
0.524805
0.475963
0.439215
0.411697
0.390985
0.375179
0.362869
0.353049
0.345017
0.338293
0.332544
0.327544
0.323134
0.319201
0.315662
0.312456
0.309536
0.306863
0.304409
0.302148
0.300058
0.298124
0.296329
0.29466
0.293106
0.291657
0.290304
0.289038
0.287852
0.286741
0.285698
0.284718
0.283796
0.28293
0.282116
0.281353
0.280638
0.279972
0.279354
0.278784
0.278262
0.277788
0.277362
0.276982
0.276648
0.276357
0.276107
0.275894
0.275715
0.275566
0.275445
0.275347
0.275268
0.275207
0.275159
0.275122
0.275094
0.275073
0.275057
0.275046
0.275037
0.275031
0.275027
0.275024
0.275022
0.275021
0.27502
0.275019
0.275019
0.275019
0.275018
0.275018
0.275018
0.275018
0.275018
0.275018
0.275018
0.275018
0.275018
0.275018
0.275018
0.275018
0.275018
0.275018
0.275018
0.275018
0.275018
0.275018
0.275018
0.275018
0.275018
0.275018
0.275019
0.275021
0.27502
0.27502
1
-1
-0.88876
-0.771421
-0.670527
-0.588769
-0.524805
-0.475963
-0.439215
-0.411697
-0.390985
-0.375179
-0.362869
-0.353049
-0.345017
-0.338293
-0.332544
-0.327544
-0.323134
-0.319201
-0.315662
-0.312456
-0.309536
-0.306863
-0.304409
-0.302148
-0.300058
-0.298124
-0.296329
-0.29466
-0.293106
-0.291657
-0.290304
-0.289038
-0.287852
-0.286741
-0.285698
-0.284718
-0.283796
-0.28293
-0.282116
-0.281353
-0.280638
-0.279972
-0.279354
-0.278784
-0.278262
-0.277788
-0.277362
-0.276982
-0.276648
-0.276357
-0.276107
-0.275894
-0.275715
-0.275566
-0.275445
-0.275347
-0.275268
-0.275207
-0.275159
-0.275122
-0.275094
-0.275073
-0.275057
-0.275046
-0.275037
-0.275031
-0.275027
-0.275024
-0.275022
-0.275021
-0.27502
-0.275019
-0.275019
-0.275019
-0.275018
-0.275018
-0.275018
-0.275018
-0.275018
-0.275018
-0.275018
-0.275018
-0.275018
-0.275018
-0.275018
-0.275018
-0.275018
-0.275018
-0.275018
-0.275018
-0.275018
-0.275018
-0.275018
-0.275018
-0.275018
-0.275018
-0.275019
-0.275021
-0.27502
-0.27502
-1
