# vtk DataFile Version 2.0
FlowField
ASCII
DATASET STRUCTURED_GRID
DIMENSIONS 102 13 1 
POINTS 1326 double
0 0 0
0.3 0 0
0.6 0 0
0.9 0 0
1.2 0 0
1.5 0 0
1.8 0 0
2.1 0 0
2.4 0 0
2.7 0 0
3 0 0
3.3 0 0
3.6 0 0
3.9 0 0
4.2 0 0
4.5 0 0
4.8 0 0
5.1 0 0
5.4 0 0
5.7 0 0
6 0 0
6.3 0 0
6.6 0 0
6.9 0 0
7.2 0 0
7.5 0 0
7.8 0 0
8.1 0 0
8.4 0 0
8.7 0 0
9 0 0
9.3 0 0
9.6 0 0
9.9 0 0
10.2 0 0
10.5 0 0
10.8 0 0
11.1 0 0
11.4 0 0
11.7 0 0
12 0 0
12.3 0 0
12.6 0 0
12.9 0 0
13.2 0 0
13.5 0 0
13.8 0 0
14.1 0 0
14.4 0 0
14.7 0 0
15 0 0
15.3 0 0
15.6 0 0
15.9 0 0
16.2 0 0
16.5 0 0
16.8 0 0
17.1 0 0
17.4 0 0
17.7 0 0
18 0 0
18.3 0 0
18.6 0 0
18.9 0 0
19.2 0 0
19.5 0 0
19.8 0 0
20.1 0 0
20.4 0 0
20.7 0 0
21 0 0
21.3 0 0
21.6 0 0
21.9 0 0
22.2 0 0
22.5 0 0
22.8 0 0
23.1 0 0
23.4 0 0
23.7 0 0
24 0 0
24.3 0 0
24.6 0 0
24.9 0 0
25.2 0 0
25.5 0 0
25.8 0 0
26.1 0 0
26.4 0 0
26.7 0 0
27 0 0
27.3 0 0
27.6 0 0
27.9 0 0
28.2 0 0
28.5 0 0
28.8 0 0
29.1 0 0
29.4 0 0
29.7 0 0
30 0 0
30.3 0 0
0 0.1 0
0.3 0.1 0
0.6 0.1 0
0.9 0.1 0
1.2 0.1 0
1.5 0.1 0
1.8 0.1 0
2.1 0.1 0
2.4 0.1 0
2.7 0.1 0
3 0.1 0
3.3 0.1 0
3.6 0.1 0
3.9 0.1 0
4.2 0.1 0
4.5 0.1 0
4.8 0.1 0
5.1 0.1 0
5.4 0.1 0
5.7 0.1 0
6 0.1 0
6.3 0.1 0
6.6 0.1 0
6.9 0.1 0
7.2 0.1 0
7.5 0.1 0
7.8 0.1 0
8.1 0.1 0
8.4 0.1 0
8.7 0.1 0
9 0.1 0
9.3 0.1 0
9.6 0.1 0
9.9 0.1 0
10.2 0.1 0
10.5 0.1 0
10.8 0.1 0
11.1 0.1 0
11.4 0.1 0
11.7 0.1 0
12 0.1 0
12.3 0.1 0
12.6 0.1 0
12.9 0.1 0
13.2 0.1 0
13.5 0.1 0
13.8 0.1 0
14.1 0.1 0
14.4 0.1 0
14.7 0.1 0
15 0.1 0
15.3 0.1 0
15.6 0.1 0
15.9 0.1 0
16.2 0.1 0
16.5 0.1 0
16.8 0.1 0
17.1 0.1 0
17.4 0.1 0
17.7 0.1 0
18 0.1 0
18.3 0.1 0
18.6 0.1 0
18.9 0.1 0
19.2 0.1 0
19.5 0.1 0
19.8 0.1 0
20.1 0.1 0
20.4 0.1 0
20.7 0.1 0
21 0.1 0
21.3 0.1 0
21.6 0.1 0
21.9 0.1 0
22.2 0.1 0
22.5 0.1 0
22.8 0.1 0
23.1 0.1 0
23.4 0.1 0
23.7 0.1 0
24 0.1 0
24.3 0.1 0
24.6 0.1 0
24.9 0.1 0
25.2 0.1 0
25.5 0.1 0
25.8 0.1 0
26.1 0.1 0
26.4 0.1 0
26.7 0.1 0
27 0.1 0
27.3 0.1 0
27.6 0.1 0
27.9 0.1 0
28.2 0.1 0
28.5 0.1 0
28.8 0.1 0
29.1 0.1 0
29.4 0.1 0
29.7 0.1 0
30 0.1 0
30.3 0.1 0
0 0.2 0
0.3 0.2 0
0.6 0.2 0
0.9 0.2 0
1.2 0.2 0
1.5 0.2 0
1.8 0.2 0
2.1 0.2 0
2.4 0.2 0
2.7 0.2 0
3 0.2 0
3.3 0.2 0
3.6 0.2 0
3.9 0.2 0
4.2 0.2 0
4.5 0.2 0
4.8 0.2 0
5.1 0.2 0
5.4 0.2 0
5.7 0.2 0
6 0.2 0
6.3 0.2 0
6.6 0.2 0
6.9 0.2 0
7.2 0.2 0
7.5 0.2 0
7.8 0.2 0
8.1 0.2 0
8.4 0.2 0
8.7 0.2 0
9 0.2 0
9.3 0.2 0
9.6 0.2 0
9.9 0.2 0
10.2 0.2 0
10.5 0.2 0
10.8 0.2 0
11.1 0.2 0
11.4 0.2 0
11.7 0.2 0
12 0.2 0
12.3 0.2 0
12.6 0.2 0
12.9 0.2 0
13.2 0.2 0
13.5 0.2 0
13.8 0.2 0
14.1 0.2 0
14.4 0.2 0
14.7 0.2 0
15 0.2 0
15.3 0.2 0
15.6 0.2 0
15.9 0.2 0
16.2 0.2 0
16.5 0.2 0
16.8 0.2 0
17.1 0.2 0
17.4 0.2 0
17.7 0.2 0
18 0.2 0
18.3 0.2 0
18.6 0.2 0
18.9 0.2 0
19.2 0.2 0
19.5 0.2 0
19.8 0.2 0
20.1 0.2 0
20.4 0.2 0
20.7 0.2 0
21 0.2 0
21.3 0.2 0
21.6 0.2 0
21.9 0.2 0
22.2 0.2 0
22.5 0.2 0
22.8 0.2 0
23.1 0.2 0
23.4 0.2 0
23.7 0.2 0
24 0.2 0
24.3 0.2 0
24.6 0.2 0
24.9 0.2 0
25.2 0.2 0
25.5 0.2 0
25.8 0.2 0
26.1 0.2 0
26.4 0.2 0
26.7 0.2 0
27 0.2 0
27.3 0.2 0
27.6 0.2 0
27.9 0.2 0
28.2 0.2 0
28.5 0.2 0
28.8 0.2 0
29.1 0.2 0
29.4 0.2 0
29.7 0.2 0
30 0.2 0
30.3 0.2 0
0 0.3 0
0.3 0.3 0
0.6 0.3 0
0.9 0.3 0
1.2 0.3 0
1.5 0.3 0
1.8 0.3 0
2.1 0.3 0
2.4 0.3 0
2.7 0.3 0
3 0.3 0
3.3 0.3 0
3.6 0.3 0
3.9 0.3 0
4.2 0.3 0
4.5 0.3 0
4.8 0.3 0
5.1 0.3 0
5.4 0.3 0
5.7 0.3 0
6 0.3 0
6.3 0.3 0
6.6 0.3 0
6.9 0.3 0
7.2 0.3 0
7.5 0.3 0
7.8 0.3 0
8.1 0.3 0
8.4 0.3 0
8.7 0.3 0
9 0.3 0
9.3 0.3 0
9.6 0.3 0
9.9 0.3 0
10.2 0.3 0
10.5 0.3 0
10.8 0.3 0
11.1 0.3 0
11.4 0.3 0
11.7 0.3 0
12 0.3 0
12.3 0.3 0
12.6 0.3 0
12.9 0.3 0
13.2 0.3 0
13.5 0.3 0
13.8 0.3 0
14.1 0.3 0
14.4 0.3 0
14.7 0.3 0
15 0.3 0
15.3 0.3 0
15.6 0.3 0
15.9 0.3 0
16.2 0.3 0
16.5 0.3 0
16.8 0.3 0
17.1 0.3 0
17.4 0.3 0
17.7 0.3 0
18 0.3 0
18.3 0.3 0
18.6 0.3 0
18.9 0.3 0
19.2 0.3 0
19.5 0.3 0
19.8 0.3 0
20.1 0.3 0
20.4 0.3 0
20.7 0.3 0
21 0.3 0
21.3 0.3 0
21.6 0.3 0
21.9 0.3 0
22.2 0.3 0
22.5 0.3 0
22.8 0.3 0
23.1 0.3 0
23.4 0.3 0
23.7 0.3 0
24 0.3 0
24.3 0.3 0
24.6 0.3 0
24.9 0.3 0
25.2 0.3 0
25.5 0.3 0
25.8 0.3 0
26.1 0.3 0
26.4 0.3 0
26.7 0.3 0
27 0.3 0
27.3 0.3 0
27.6 0.3 0
27.9 0.3 0
28.2 0.3 0
28.5 0.3 0
28.8 0.3 0
29.1 0.3 0
29.4 0.3 0
29.7 0.3 0
30 0.3 0
30.3 0.3 0
0 0.4 0
0.3 0.4 0
0.6 0.4 0
0.9 0.4 0
1.2 0.4 0
1.5 0.4 0
1.8 0.4 0
2.1 0.4 0
2.4 0.4 0
2.7 0.4 0
3 0.4 0
3.3 0.4 0
3.6 0.4 0
3.9 0.4 0
4.2 0.4 0
4.5 0.4 0
4.8 0.4 0
5.1 0.4 0
5.4 0.4 0
5.7 0.4 0
6 0.4 0
6.3 0.4 0
6.6 0.4 0
6.9 0.4 0
7.2 0.4 0
7.5 0.4 0
7.8 0.4 0
8.1 0.4 0
8.4 0.4 0
8.7 0.4 0
9 0.4 0
9.3 0.4 0
9.6 0.4 0
9.9 0.4 0
10.2 0.4 0
10.5 0.4 0
10.8 0.4 0
11.1 0.4 0
11.4 0.4 0
11.7 0.4 0
12 0.4 0
12.3 0.4 0
12.6 0.4 0
12.9 0.4 0
13.2 0.4 0
13.5 0.4 0
13.8 0.4 0
14.1 0.4 0
14.4 0.4 0
14.7 0.4 0
15 0.4 0
15.3 0.4 0
15.6 0.4 0
15.9 0.4 0
16.2 0.4 0
16.5 0.4 0
16.8 0.4 0
17.1 0.4 0
17.4 0.4 0
17.7 0.4 0
18 0.4 0
18.3 0.4 0
18.6 0.4 0
18.9 0.4 0
19.2 0.4 0
19.5 0.4 0
19.8 0.4 0
20.1 0.4 0
20.4 0.4 0
20.7 0.4 0
21 0.4 0
21.3 0.4 0
21.6 0.4 0
21.9 0.4 0
22.2 0.4 0
22.5 0.4 0
22.8 0.4 0
23.1 0.4 0
23.4 0.4 0
23.7 0.4 0
24 0.4 0
24.3 0.4 0
24.6 0.4 0
24.9 0.4 0
25.2 0.4 0
25.5 0.4 0
25.8 0.4 0
26.1 0.4 0
26.4 0.4 0
26.7 0.4 0
27 0.4 0
27.3 0.4 0
27.6 0.4 0
27.9 0.4 0
28.2 0.4 0
28.5 0.4 0
28.8 0.4 0
29.1 0.4 0
29.4 0.4 0
29.7 0.4 0
30 0.4 0
30.3 0.4 0
0 0.5 0
0.3 0.5 0
0.6 0.5 0
0.9 0.5 0
1.2 0.5 0
1.5 0.5 0
1.8 0.5 0
2.1 0.5 0
2.4 0.5 0
2.7 0.5 0
3 0.5 0
3.3 0.5 0
3.6 0.5 0
3.9 0.5 0
4.2 0.5 0
4.5 0.5 0
4.8 0.5 0
5.1 0.5 0
5.4 0.5 0
5.7 0.5 0
6 0.5 0
6.3 0.5 0
6.6 0.5 0
6.9 0.5 0
7.2 0.5 0
7.5 0.5 0
7.8 0.5 0
8.1 0.5 0
8.4 0.5 0
8.7 0.5 0
9 0.5 0
9.3 0.5 0
9.6 0.5 0
9.9 0.5 0
10.2 0.5 0
10.5 0.5 0
10.8 0.5 0
11.1 0.5 0
11.4 0.5 0
11.7 0.5 0
12 0.5 0
12.3 0.5 0
12.6 0.5 0
12.9 0.5 0
13.2 0.5 0
13.5 0.5 0
13.8 0.5 0
14.1 0.5 0
14.4 0.5 0
14.7 0.5 0
15 0.5 0
15.3 0.5 0
15.6 0.5 0
15.9 0.5 0
16.2 0.5 0
16.5 0.5 0
16.8 0.5 0
17.1 0.5 0
17.4 0.5 0
17.7 0.5 0
18 0.5 0
18.3 0.5 0
18.6 0.5 0
18.9 0.5 0
19.2 0.5 0
19.5 0.5 0
19.8 0.5 0
20.1 0.5 0
20.4 0.5 0
20.7 0.5 0
21 0.5 0
21.3 0.5 0
21.6 0.5 0
21.9 0.5 0
22.2 0.5 0
22.5 0.5 0
22.8 0.5 0
23.1 0.5 0
23.4 0.5 0
23.7 0.5 0
24 0.5 0
24.3 0.5 0
24.6 0.5 0
24.9 0.5 0
25.2 0.5 0
25.5 0.5 0
25.8 0.5 0
26.1 0.5 0
26.4 0.5 0
26.7 0.5 0
27 0.5 0
27.3 0.5 0
27.6 0.5 0
27.9 0.5 0
28.2 0.5 0
28.5 0.5 0
28.8 0.5 0
29.1 0.5 0
29.4 0.5 0
29.7 0.5 0
30 0.5 0
30.3 0.5 0
0 0.6 0
0.3 0.6 0
0.6 0.6 0
0.9 0.6 0
1.2 0.6 0
1.5 0.6 0
1.8 0.6 0
2.1 0.6 0
2.4 0.6 0
2.7 0.6 0
3 0.6 0
3.3 0.6 0
3.6 0.6 0
3.9 0.6 0
4.2 0.6 0
4.5 0.6 0
4.8 0.6 0
5.1 0.6 0
5.4 0.6 0
5.7 0.6 0
6 0.6 0
6.3 0.6 0
6.6 0.6 0
6.9 0.6 0
7.2 0.6 0
7.5 0.6 0
7.8 0.6 0
8.1 0.6 0
8.4 0.6 0
8.7 0.6 0
9 0.6 0
9.3 0.6 0
9.6 0.6 0
9.9 0.6 0
10.2 0.6 0
10.5 0.6 0
10.8 0.6 0
11.1 0.6 0
11.4 0.6 0
11.7 0.6 0
12 0.6 0
12.3 0.6 0
12.6 0.6 0
12.9 0.6 0
13.2 0.6 0
13.5 0.6 0
13.8 0.6 0
14.1 0.6 0
14.4 0.6 0
14.7 0.6 0
15 0.6 0
15.3 0.6 0
15.6 0.6 0
15.9 0.6 0
16.2 0.6 0
16.5 0.6 0
16.8 0.6 0
17.1 0.6 0
17.4 0.6 0
17.7 0.6 0
18 0.6 0
18.3 0.6 0
18.6 0.6 0
18.9 0.6 0
19.2 0.6 0
19.5 0.6 0
19.8 0.6 0
20.1 0.6 0
20.4 0.6 0
20.7 0.6 0
21 0.6 0
21.3 0.6 0
21.6 0.6 0
21.9 0.6 0
22.2 0.6 0
22.5 0.6 0
22.8 0.6 0
23.1 0.6 0
23.4 0.6 0
23.7 0.6 0
24 0.6 0
24.3 0.6 0
24.6 0.6 0
24.9 0.6 0
25.2 0.6 0
25.5 0.6 0
25.8 0.6 0
26.1 0.6 0
26.4 0.6 0
26.7 0.6 0
27 0.6 0
27.3 0.6 0
27.6 0.6 0
27.9 0.6 0
28.2 0.6 0
28.5 0.6 0
28.8 0.6 0
29.1 0.6 0
29.4 0.6 0
29.7 0.6 0
30 0.6 0
30.3 0.6 0
0 0.7 0
0.3 0.7 0
0.6 0.7 0
0.9 0.7 0
1.2 0.7 0
1.5 0.7 0
1.8 0.7 0
2.1 0.7 0
2.4 0.7 0
2.7 0.7 0
3 0.7 0
3.3 0.7 0
3.6 0.7 0
3.9 0.7 0
4.2 0.7 0
4.5 0.7 0
4.8 0.7 0
5.1 0.7 0
5.4 0.7 0
5.7 0.7 0
6 0.7 0
6.3 0.7 0
6.6 0.7 0
6.9 0.7 0
7.2 0.7 0
7.5 0.7 0
7.8 0.7 0
8.1 0.7 0
8.4 0.7 0
8.7 0.7 0
9 0.7 0
9.3 0.7 0
9.6 0.7 0
9.9 0.7 0
10.2 0.7 0
10.5 0.7 0
10.8 0.7 0
11.1 0.7 0
11.4 0.7 0
11.7 0.7 0
12 0.7 0
12.3 0.7 0
12.6 0.7 0
12.9 0.7 0
13.2 0.7 0
13.5 0.7 0
13.8 0.7 0
14.1 0.7 0
14.4 0.7 0
14.7 0.7 0
15 0.7 0
15.3 0.7 0
15.6 0.7 0
15.9 0.7 0
16.2 0.7 0
16.5 0.7 0
16.8 0.7 0
17.1 0.7 0
17.4 0.7 0
17.7 0.7 0
18 0.7 0
18.3 0.7 0
18.6 0.7 0
18.9 0.7 0
19.2 0.7 0
19.5 0.7 0
19.8 0.7 0
20.1 0.7 0
20.4 0.7 0
20.7 0.7 0
21 0.7 0
21.3 0.7 0
21.6 0.7 0
21.9 0.7 0
22.2 0.7 0
22.5 0.7 0
22.8 0.7 0
23.1 0.7 0
23.4 0.7 0
23.7 0.7 0
24 0.7 0
24.3 0.7 0
24.6 0.7 0
24.9 0.7 0
25.2 0.7 0
25.5 0.7 0
25.8 0.7 0
26.1 0.7 0
26.4 0.7 0
26.7 0.7 0
27 0.7 0
27.3 0.7 0
27.6 0.7 0
27.9 0.7 0
28.2 0.7 0
28.5 0.7 0
28.8 0.7 0
29.1 0.7 0
29.4 0.7 0
29.7 0.7 0
30 0.7 0
30.3 0.7 0
0 0.8 0
0.3 0.8 0
0.6 0.8 0
0.9 0.8 0
1.2 0.8 0
1.5 0.8 0
1.8 0.8 0
2.1 0.8 0
2.4 0.8 0
2.7 0.8 0
3 0.8 0
3.3 0.8 0
3.6 0.8 0
3.9 0.8 0
4.2 0.8 0
4.5 0.8 0
4.8 0.8 0
5.1 0.8 0
5.4 0.8 0
5.7 0.8 0
6 0.8 0
6.3 0.8 0
6.6 0.8 0
6.9 0.8 0
7.2 0.8 0
7.5 0.8 0
7.8 0.8 0
8.1 0.8 0
8.4 0.8 0
8.7 0.8 0
9 0.8 0
9.3 0.8 0
9.6 0.8 0
9.9 0.8 0
10.2 0.8 0
10.5 0.8 0
10.8 0.8 0
11.1 0.8 0
11.4 0.8 0
11.7 0.8 0
12 0.8 0
12.3 0.8 0
12.6 0.8 0
12.9 0.8 0
13.2 0.8 0
13.5 0.8 0
13.8 0.8 0
14.1 0.8 0
14.4 0.8 0
14.7 0.8 0
15 0.8 0
15.3 0.8 0
15.6 0.8 0
15.9 0.8 0
16.2 0.8 0
16.5 0.8 0
16.8 0.8 0
17.1 0.8 0
17.4 0.8 0
17.7 0.8 0
18 0.8 0
18.3 0.8 0
18.6 0.8 0
18.9 0.8 0
19.2 0.8 0
19.5 0.8 0
19.8 0.8 0
20.1 0.8 0
20.4 0.8 0
20.7 0.8 0
21 0.8 0
21.3 0.8 0
21.6 0.8 0
21.9 0.8 0
22.2 0.8 0
22.5 0.8 0
22.8 0.8 0
23.1 0.8 0
23.4 0.8 0
23.7 0.8 0
24 0.8 0
24.3 0.8 0
24.6 0.8 0
24.9 0.8 0
25.2 0.8 0
25.5 0.8 0
25.8 0.8 0
26.1 0.8 0
26.4 0.8 0
26.7 0.8 0
27 0.8 0
27.3 0.8 0
27.6 0.8 0
27.9 0.8 0
28.2 0.8 0
28.5 0.8 0
28.8 0.8 0
29.1 0.8 0
29.4 0.8 0
29.7 0.8 0
30 0.8 0
30.3 0.8 0
0 0.9 0
0.3 0.9 0
0.6 0.9 0
0.9 0.9 0
1.2 0.9 0
1.5 0.9 0
1.8 0.9 0
2.1 0.9 0
2.4 0.9 0
2.7 0.9 0
3 0.9 0
3.3 0.9 0
3.6 0.9 0
3.9 0.9 0
4.2 0.9 0
4.5 0.9 0
4.8 0.9 0
5.1 0.9 0
5.4 0.9 0
5.7 0.9 0
6 0.9 0
6.3 0.9 0
6.6 0.9 0
6.9 0.9 0
7.2 0.9 0
7.5 0.9 0
7.8 0.9 0
8.1 0.9 0
8.4 0.9 0
8.7 0.9 0
9 0.9 0
9.3 0.9 0
9.6 0.9 0
9.9 0.9 0
10.2 0.9 0
10.5 0.9 0
10.8 0.9 0
11.1 0.9 0
11.4 0.9 0
11.7 0.9 0
12 0.9 0
12.3 0.9 0
12.6 0.9 0
12.9 0.9 0
13.2 0.9 0
13.5 0.9 0
13.8 0.9 0
14.1 0.9 0
14.4 0.9 0
14.7 0.9 0
15 0.9 0
15.3 0.9 0
15.6 0.9 0
15.9 0.9 0
16.2 0.9 0
16.5 0.9 0
16.8 0.9 0
17.1 0.9 0
17.4 0.9 0
17.7 0.9 0
18 0.9 0
18.3 0.9 0
18.6 0.9 0
18.9 0.9 0
19.2 0.9 0
19.5 0.9 0
19.8 0.9 0
20.1 0.9 0
20.4 0.9 0
20.7 0.9 0
21 0.9 0
21.3 0.9 0
21.6 0.9 0
21.9 0.9 0
22.2 0.9 0
22.5 0.9 0
22.8 0.9 0
23.1 0.9 0
23.4 0.9 0
23.7 0.9 0
24 0.9 0
24.3 0.9 0
24.6 0.9 0
24.9 0.9 0
25.2 0.9 0
25.5 0.9 0
25.8 0.9 0
26.1 0.9 0
26.4 0.9 0
26.7 0.9 0
27 0.9 0
27.3 0.9 0
27.6 0.9 0
27.9 0.9 0
28.2 0.9 0
28.5 0.9 0
28.8 0.9 0
29.1 0.9 0
29.4 0.9 0
29.7 0.9 0
30 0.9 0
30.3 0.9 0
0 1 0
0.3 1 0
0.6 1 0
0.9 1 0
1.2 1 0
1.5 1 0
1.8 1 0
2.1 1 0
2.4 1 0
2.7 1 0
3 1 0
3.3 1 0
3.6 1 0
3.9 1 0
4.2 1 0
4.5 1 0
4.8 1 0
5.1 1 0
5.4 1 0
5.7 1 0
6 1 0
6.3 1 0
6.6 1 0
6.9 1 0
7.2 1 0
7.5 1 0
7.8 1 0
8.1 1 0
8.4 1 0
8.7 1 0
9 1 0
9.3 1 0
9.6 1 0
9.9 1 0
10.2 1 0
10.5 1 0
10.8 1 0
11.1 1 0
11.4 1 0
11.7 1 0
12 1 0
12.3 1 0
12.6 1 0
12.9 1 0
13.2 1 0
13.5 1 0
13.8 1 0
14.1 1 0
14.4 1 0
14.7 1 0
15 1 0
15.3 1 0
15.6 1 0
15.9 1 0
16.2 1 0
16.5 1 0
16.8 1 0
17.1 1 0
17.4 1 0
17.7 1 0
18 1 0
18.3 1 0
18.6 1 0
18.9 1 0
19.2 1 0
19.5 1 0
19.8 1 0
20.1 1 0
20.4 1 0
20.7 1 0
21 1 0
21.3 1 0
21.6 1 0
21.9 1 0
22.2 1 0
22.5 1 0
22.8 1 0
23.1 1 0
23.4 1 0
23.7 1 0
24 1 0
24.3 1 0
24.6 1 0
24.9 1 0
25.2 1 0
25.5 1 0
25.8 1 0
26.1 1 0
26.4 1 0
26.7 1 0
27 1 0
27.3 1 0
27.6 1 0
27.9 1 0
28.2 1 0
28.5 1 0
28.8 1 0
29.1 1 0
29.4 1 0
29.7 1 0
30 1 0
30.3 1 0
0 1.1 0
0.3 1.1 0
0.6 1.1 0
0.9 1.1 0
1.2 1.1 0
1.5 1.1 0
1.8 1.1 0
2.1 1.1 0
2.4 1.1 0
2.7 1.1 0
3 1.1 0
3.3 1.1 0
3.6 1.1 0
3.9 1.1 0
4.2 1.1 0
4.5 1.1 0
4.8 1.1 0
5.1 1.1 0
5.4 1.1 0
5.7 1.1 0
6 1.1 0
6.3 1.1 0
6.6 1.1 0
6.9 1.1 0
7.2 1.1 0
7.5 1.1 0
7.8 1.1 0
8.1 1.1 0
8.4 1.1 0
8.7 1.1 0
9 1.1 0
9.3 1.1 0
9.6 1.1 0
9.9 1.1 0
10.2 1.1 0
10.5 1.1 0
10.8 1.1 0
11.1 1.1 0
11.4 1.1 0
11.7 1.1 0
12 1.1 0
12.3 1.1 0
12.6 1.1 0
12.9 1.1 0
13.2 1.1 0
13.5 1.1 0
13.8 1.1 0
14.1 1.1 0
14.4 1.1 0
14.7 1.1 0
15 1.1 0
15.3 1.1 0
15.6 1.1 0
15.9 1.1 0
16.2 1.1 0
16.5 1.1 0
16.8 1.1 0
17.1 1.1 0
17.4 1.1 0
17.7 1.1 0
18 1.1 0
18.3 1.1 0
18.6 1.1 0
18.9 1.1 0
19.2 1.1 0
19.5 1.1 0
19.8 1.1 0
20.1 1.1 0
20.4 1.1 0
20.7 1.1 0
21 1.1 0
21.3 1.1 0
21.6 1.1 0
21.9 1.1 0
22.2 1.1 0
22.5 1.1 0
22.8 1.1 0
23.1 1.1 0
23.4 1.1 0
23.7 1.1 0
24 1.1 0
24.3 1.1 0
24.6 1.1 0
24.9 1.1 0
25.2 1.1 0
25.5 1.1 0
25.8 1.1 0
26.1 1.1 0
26.4 1.1 0
26.7 1.1 0
27 1.1 0
27.3 1.1 0
27.6 1.1 0
27.9 1.1 0
28.2 1.1 0
28.5 1.1 0
28.8 1.1 0
29.1 1.1 0
29.4 1.1 0
29.7 1.1 0
30 1.1 0
30.3 1.1 0
0 1.2 0
0.3 1.2 0
0.6 1.2 0
0.9 1.2 0
1.2 1.2 0
1.5 1.2 0
1.8 1.2 0
2.1 1.2 0
2.4 1.2 0
2.7 1.2 0
3 1.2 0
3.3 1.2 0
3.6 1.2 0
3.9 1.2 0
4.2 1.2 0
4.5 1.2 0
4.8 1.2 0
5.1 1.2 0
5.4 1.2 0
5.7 1.2 0
6 1.2 0
6.3 1.2 0
6.6 1.2 0
6.9 1.2 0
7.2 1.2 0
7.5 1.2 0
7.8 1.2 0
8.1 1.2 0
8.4 1.2 0
8.7 1.2 0
9 1.2 0
9.3 1.2 0
9.6 1.2 0
9.9 1.2 0
10.2 1.2 0
10.5 1.2 0
10.8 1.2 0
11.1 1.2 0
11.4 1.2 0
11.7 1.2 0
12 1.2 0
12.3 1.2 0
12.6 1.2 0
12.9 1.2 0
13.2 1.2 0
13.5 1.2 0
13.8 1.2 0
14.1 1.2 0
14.4 1.2 0
14.7 1.2 0
15 1.2 0
15.3 1.2 0
15.6 1.2 0
15.9 1.2 0
16.2 1.2 0
16.5 1.2 0
16.8 1.2 0
17.1 1.2 0
17.4 1.2 0
17.7 1.2 0
18 1.2 0
18.3 1.2 0
18.6 1.2 0
18.9 1.2 0
19.2 1.2 0
19.5 1.2 0
19.8 1.2 0
20.1 1.2 0
20.4 1.2 0
20.7 1.2 0
21 1.2 0
21.3 1.2 0
21.6 1.2 0
21.9 1.2 0
22.2 1.2 0
22.5 1.2 0
22.8 1.2 0
23.1 1.2 0
23.4 1.2 0
23.7 1.2 0
24 1.2 0
24.3 1.2 0
24.6 1.2 0
24.9 1.2 0
25.2 1.2 0
25.5 1.2 0
25.8 1.2 0
26.1 1.2 0
26.4 1.2 0
26.7 1.2 0
27 1.2 0
27.3 1.2 0
27.6 1.2 0
27.9 1.2 0
28.2 1.2 0
28.5 1.2 0
28.8 1.2 0
29.1 1.2 0
29.4 1.2 0
29.7 1.2 0
30 1.2 0
30.3 1.2 0

POINT_DATA 1326

SCALARS phi double
LOOKUP_TABLE default
1
1
1
1
0.999998
0.999994
0.999982
0.999957
0.999909
0.999829
0.999706
0.999526
0.999269
0.998936
0.998562
0.998154
0.997561
0.996343
0.993757
0.988902
0.980925
0.969212
0.953477
0.933754
0.910314
0.883584
0.854062
0.822265
0.788698
0.753836
0.718112
0.681914
0.645584
0.609413
0.57365
0.538497
0.504118
0.470645
0.438174
0.40678
0.376515
0.347415
0.319504
0.292797
0.267303
0.243027
0.219976
0.198154
0.177567
0.158221
0.140125
0.123284
0.107704
0.0933827
0.0803155
0.0684878
0.0578757
0.0484443
0.0401472
0.0329267
0.0267143
0.021433
0.0169986
0.0133231
0.0103167
0.0078906
0.00595972
0.00444437
0.00327189
0.00237761
0.00170527
0.00120705
0.000843182
0.000581252
0.000395413
0.000265451
0.000175862
0.000114982
7.41955e-05
4.72538e-05
2.97054e-05
1.84333e-05
1.12921e-05
6.82947e-06
4.07825e-06
2.40479e-06
1.40035e-06
8.05367e-07
4.57501e-07
2.56729e-07
1.42326e-07
7.79594e-08
4.21958e-08
2.257e-08
1.19316e-08
6.23476e-09
3.22057e-09
1.64478e-09
8.3019e-10
4.16691e-10
1.915e-10
1.915e-10
1
1
1
1
0.999998
0.999994
0.999982
0.999957
0.999909
0.999829
0.999706
0.999526
0.999269
0.998936
0.998562
0.998154
0.997561
0.996343
0.993757
0.988902
0.980925
0.969212
0.953477
0.933754
0.910314
0.883584
0.854062
0.822265
0.788698
0.753836
0.718112
0.681914
0.645584
0.609413
0.57365
0.538497
0.504118
0.470645
0.438174
0.40678
0.376515
0.347415
0.319504
0.292797
0.267303
0.243027
0.219976
0.198154
0.177567
0.158221
0.140125
0.123284
0.107704
0.0933827
0.0803155
0.0684878
0.0578757
0.0484443
0.0401472
0.0329267
0.0267143
0.021433
0.0169986
0.0133231
0.0103167
0.0078906
0.00595972
0.00444437
0.00327189
0.00237761
0.00170527
0.00120705
0.000843182
0.000581252
0.000395413
0.000265451
0.000175862
0.000114982
7.41955e-05
4.72538e-05
2.97054e-05
1.84333e-05
1.12921e-05
6.82947e-06
4.07825e-06
2.40479e-06
1.40035e-06
8.05367e-07
4.57501e-07
2.56729e-07
1.42326e-07
7.79594e-08
4.21958e-08
2.257e-08
1.19316e-08
6.23476e-09
3.22057e-09
1.64478e-09
8.3019e-10
4.16691e-10
1.915e-10
1.915e-10
1
1
1
0.999996
0.999983
0.999953
0.999898
0.999804
0.999658
0.999446
0.999157
0.998778
0.998299
0.99771
0.997011
0.996213
0.995308
0.994224
0.992779
0.990662
0.987457
0.982708
0.975985
0.966944
0.955358
0.941126
0.924267
0.904893
0.883195
0.859411
0.833815
0.806695
0.778341
0.749037
0.719052
0.688633
0.658006
0.627368
0.596891
0.566719
0.536968
0.507728
0.479065
0.451022
0.423623
0.396877
0.37078
0.345323
0.320494
0.296284
0.272693
0.249733
0.227432
0.205835
0.185007
0.165028
0.145992
0.127997
0.111144
0.0955238
0.0812118
0.0682609
0.0566962
0.0465129
0.0376757
0.0301211
0.0237618
0.018492
0.0141939
0.010744
0.00801916
0.00590141
0.0042818
0.00306288
0.00216008
0.00150194
0.00102967
0.000696035
0.000463959
0.000304985
0.000197727
0.00012644
7.97594e-05
4.96365e-05
3.04785e-05
1.84676e-05
1.10433e-05
6.51804e-06
3.79765e-06
2.18447e-06
1.24069e-06
6.95862e-07
3.85457e-07
2.10899e-07
1.13992e-07
6.08733e-08
3.21204e-08
1.67499e-08
8.62842e-09
4.42099e-09
2.06488e-09
2.06488e-09
0.999997
1
0.99998
0.999896
0.999724
0.999434
0.998999
0.998397
0.997613
0.996636
0.995464
0.994099
0.992547
0.990815
0.988915
0.986859
0.984662
0.98233
0.979855
0.977192
0.974258
0.970923
0.967026
0.962382
0.956807
0.950125
0.942189
0.932883
0.922132
0.9099
0.896188
0.881031
0.864494
0.846667
0.827657
0.807585
0.786583
0.764785
0.742326
0.719336
0.695936
0.672238
0.648337
0.62431
0.600212
0.576077
0.551917
0.527718
0.503447
0.479054
0.454476
0.429645
0.404504
0.37901
0.353156
0.326975
0.300556
0.274045
0.247642
0.221601
0.196207
0.171763
0.148569
0.126894
0.106966
0.0889488
0.0729394
0.0589626
0.0469758
0.0368784
0.028524
0.0217345
0.0163141
0.0120627
0.00878619
0.00630439
0.00445655
0.00310385
0.00213004
0.00144048
0.00096007
0.000630714
0.00040846
0.000260803
0.000164203
0.000101956
6.24419e-05
3.77248e-05
2.24869e-05
1.32266e-05
7.67786e-06
4.39917e-06
2.48829e-06
1.3896e-06
7.66301e-07
4.17338e-07
2.24497e-07
1.19303e-07
6.26038e-08
3.2678e-08
1.55148e-08
1.55148e-08
0.999999
1
0.99943
0.998224
0.996402
0.994008
0.991093
0.987716
0.983939
0.979828
0.975446
0.970853
0.966102
0.961238
0.9563
0.951317
0.946317
0.941321
0.936345
0.931394
0.926467
0.921546
0.916598
0.911574
0.906412
0.901038
0.895372
0.88933
0.88283
0.875797
0.868162
0.859867
0.85087
0.841137
0.830652
0.819408
0.807414
0.794688
0.781258
0.767163
0.752446
0.737153
0.721332
0.705029
0.688285
0.671131
0.653584
0.635644
0.61729
0.598471
0.579109
0.55909
0.538276
0.516504
0.493607
0.469433
0.443867
0.416863
0.388464
0.35882
0.328196
0.296966
0.26559
0.234585
0.204488
0.175812
0.149013
0.124455
0.102392
0.0829614
0.0661853
0.0519836
0.0401938
0.0305933
0.022923
0.0169088
0.0122794
0.00878023
0.00618219
0.00428687
0.0029279
0.00196994
0.00130584
0.000852985
0.000549123
0.000348454
0.000217991
0.000134468
8.18011e-05
4.90823e-05
2.90528e-05
1.69674e-05
9.77862e-06
5.5621e-06
3.12296e-06
1.73111e-06
9.47494e-07
5.12164e-07
2.73275e-07
1.45045e-07
6.99337e-08
6.99337e-08
1.00149
0.998508
0.989831
0.978334
0.965614
0.952521
0.939508
0.926817
0.914586
0.90289
0.891766
0.881225
0.871261
0.861853
0.852973
0.844592
0.836674
0.829189
0.822104
0.815388
0.809012
0.802946
0.797161
0.791624
0.7863
0.781151
0.776136
0.771209
0.766324
0.761432
0.756482
0.751426
0.746215
0.740803
0.735148
0.729211
0.722958
0.716359
0.709392
0.702038
0.694284
0.686122
0.677551
0.668569
0.65918
0.649388
0.639194
0.628594
0.61757
0.606089
0.594087
0.581462
0.568066
0.553699
0.538117
0.521039
0.502175
0.481261
0.4581
0.432599
0.404807
0.374937
0.343364
0.310612
0.277319
0.244185
0.211917
0.181177
0.15253
0.126413
0.103113
0.0827659
0.0653692
0.0507997
0.0388435
0.0292257
0.0216389
0.0157677
0.0113089
0.00798452
0.0055503
0.00379919
0.0025612
0.00170078
0.0011127
0.000717318
0.000455745
0.00028542
0.000176229
0.000107293
6.44241e-05
3.81571e-05
2.2296e-05
1.2855e-05
7.31452e-06
4.10803e-06
2.27762e-06
1.24687e-06
6.73629e-07
3.62029e-07
1.76622e-07
1.76622e-07
1.04825
0.951752
0.875703
0.818254
0.774815
0.7415
0.715492
0.694815
0.678089
0.664344
0.652885
0.64321
0.634947
0.627818
0.621611
0.616159
0.611336
0.607038
0.603184
0.599709
0.596557
0.593685
0.591056
0.588636
0.586399
0.584318
0.582369
0.580531
0.578778
0.577089
0.57544
0.573806
0.572162
0.570484
0.568746
0.566922
0.564987
0.562918
0.560689
0.55828
0.55567
0.552841
0.549776
0.546462
0.542886
0.539037
0.534906
0.530481
0.525744
0.520665
0.515189
0.509228
0.502644
0.495239
0.486753
0.476871
0.465236
0.451491
0.435312
0.416465
0.394848
0.370527
0.343754
0.314964
0.284749
0.25381
0.222905
0.192781
0.164121
0.137495
0.113327
0.0918849
0.0732801
0.0574843
0.0443551
0.0336665
0.0251391
0.0184693
0.0133523
0.00950028
0.00665362
0.0045877
0.00311477
0.0020827
0.00137176
0.000890138
0.000569178
0.000358698
0.000222833
0.000136483
8.24329e-05
4.9105e-05
2.88554e-05
1.67294e-05
9.57099e-06
5.40415e-06
3.01204e-06
1.65749e-06
9.0003e-07
4.86176e-07
2.38347e-07
2.38347e-07
-0.0446953
0.0446953
0.107508
0.152458
0.185771
0.211397
0.231802
0.248527
0.262547
0.274503
0.284836
0.293866
0.301832
0.308922
0.315285
0.321041
0.326286
0.331098
0.335543
0.339671
0.343527
0.347145
0.350555
0.353782
0.356846
0.359764
0.362549
0.365214
0.367766
0.370211
0.372555
0.374799
0.376944
0.378987
0.380924
0.382752
0.384464
0.386052
0.387509
0.388827
0.389996
0.391009
0.391856
0.392528
0.393016
0.393309
0.393396
0.393262
0.392881
0.392215
0.3912
0.389736
0.387675
0.384817
0.3809
0.375617
0.368632
0.359611
0.348266
0.334395
0.317922
0.298928
0.27766
0.254527
0.230068
0.204913
0.179731
0.155171
0.131822
0.110164
0.0905505
0.0731988
0.0581916
0.0454952
0.0349819
0.0264563
0.0196822
0.0144057
0.0103747
0.00735305
0.00512963
0.00352298
0.00238241
0.00158668
0.0010409
0.000672754
0.000428465
0.000268946
0.000166413
0.000101522
6.10754e-05
3.62391e-05
2.12115e-05
1.22496e-05
6.98077e-06
3.92632e-06
2.17991e-06
1.19496e-06
6.46395e-07
3.47816e-07
1.69883e-07
1.69883e-07
-0.00141662
0.00141662
0.00819779
0.0166628
0.0258774
0.0354227
0.0450904
0.0547523
0.0643114
0.0736887
0.0828236
0.0916734
0.100213
0.108431
0.116327
0.123909
0.131188
0.138179
0.144897
0.15136
0.157583
0.163582
0.169371
0.174965
0.180376
0.185615
0.190694
0.19562
0.200403
0.205049
0.209561
0.213945
0.218202
0.222332
0.226333
0.230205
0.233943
0.237544
0.241003
0.244316
0.247477
0.250481
0.253322
0.255992
0.25848
0.260773
0.26285
0.264683
0.266229
0.267422
0.268173
0.268356
0.267809
0.266333
0.263703
0.259677
0.254026
0.246559
0.237151
0.225771
0.212501
0.197537
0.181191
0.163862
0.14601
0.128119
0.110659
0.0940494
0.0786353
0.0646701
0.0523085
0.0416111
0.0325551
0.025051
0.018961
0.0141182
0.0103426
0.00745553
0.00528926
0.00369362
0.00253936
0.00171907
0.00114613
0.000752713
0.000487035
0.000310532
0.000195141
0.000120883
7.38305e-05
4.44669e-05
2.64147e-05
1.54788e-05
8.94923e-06
5.10578e-06
2.875e-06
1.59802e-06
8.76924e-07
4.75191e-07
2.54144e-07
1.35198e-07
6.53255e-08
6.53255e-08
-1.11745e-05
1.11745e-05
0.00042735
0.00124909
0.0024865
0.00414882
0.00623842
0.00874492
0.0116437
0.0148985
0.0184666
0.0223034
0.0263657
0.0306143
0.0350145
0.0395361
0.0441535
0.0488449
0.053592
0.0583791
0.0631934
0.0680238
0.0728608
0.0776961
0.0825222
0.087332
0.0921182
0.0968733
0.101589
0.106256
0.110865
0.115404
0.11986
0.124221
0.128472
0.132599
0.136588
0.140424
0.144094
0.147586
0.150886
0.153982
0.156859
0.159499
0.161882
0.16398
0.165755
0.167161
0.168133
0.168593
0.168445
0.167579
0.165874
0.163211
0.159479
0.154595
0.148514
0.141244
0.132854
0.123474
0.113295
0.102556
0.091526
0.0804876
0.0697143
0.0594526
0.0499067
0.0412288
0.033515
0.0268066
0.0210958
0.0163345
0.0124449
0.00933012
0.00688387
0.00499896
0.00357342
0.00251483
0.00174269
0.00118928
0.000799422
0.00052938
0.000345407
0.000222098
0.00014076
8.7945e-05
5.4177e-05
3.29127e-05
1.9721e-05
1.1657e-05
6.79833e-06
3.91245e-06
2.22226e-06
1.24597e-06
6.89685e-07
3.76958e-07
2.03467e-07
1.08478e-07
5.70988e-08
2.98934e-08
1.42324e-08
1.42324e-08
1.77951e-06
-1.77951e-06
1.46452e-05
7.0561e-05
0.000191297
0.000407208
0.000751294
0.00125576
0.0019487
0.0028519
0.00398018
0.00534175
0.00693924
0.00877086
0.0108314
0.0131134
0.0156072
0.0183023
0.0211872
0.0242499
0.0274778
0.0308578
0.0343759
0.0380167
0.0417637
0.0455981
0.0494994
0.0534447
0.0574092
0.0613661
0.065287
0.0691424
0.0729022
0.0765365
0.0800157
0.0833116
0.0863976
0.0892489
0.0918424
0.0941565
0.0961708
0.0978652
0.0992191
0.100211
0.100817
0.101011
0.100765
0.100047
0.0988258
0.097071
0.0947558
0.0918618
0.0883829
0.0843296
0.0797323
0.0746442
0.0691413
0.0633207
0.0572965
0.0511938
0.0451413
0.0392634
0.0336727
0.0284638
0.0237087
0.0194547
0.0157242
0.0125166
0.00981163
0.00757383
0.00575713
0.00430944
0.00317673
0.00230627
0.00164911
0.00116155
0.000805985
0.000551017
0.000371201
0.000246443
0.000161268
0.000104032
6.61663e-05
4.14972e-05
2.56672e-05
1.56596e-05
9.4252e-06
5.5972e-06
3.2801e-06
1.89715e-06
1.08312e-06
6.10483e-07
3.39747e-07
1.86716e-07
1.01347e-07
5.43383e-08
2.87817e-08
1.50635e-08
7.78658e-09
4.00301e-09
1.87551e-09
1.87551e-09
1.29313e-07
-1.29313e-07
2.38864e-07
4.46746e-06
2.01123e-05
6.11026e-05
0.000148704
0.000310434
0.000577098
0.000979211
0.00154414
0.00229449
0.00324761
0.0044157
0.00580633
0.00742297
0.00926566
0.0113315
0.0136148
0.0161075
0.0187986
0.0216735
0.0247143
0.0278987
0.0312001
0.034588
0.038028
0.0414827
0.0449125
0.0482762
0.0515322
0.0546394
0.0575578
0.0602495
0.0626791
0.0648141
0.0666254
0.0680873
0.0691777
0.0698785
0.0701752
0.0700574
0.0695191
0.068559
0.0671807
0.0653937
0.0632133
0.0606621
0.0577693
0.0545719
0.0511144
0.047448
0.0436301
0.0397228
0.0357907
0.0318986
0.0281093
0.0244803
0.021062
0.0178953
0.0150104
0.0124259
0.0101494
0.0081776
0.00649847
0.00509248
0.00393487
0.00299761
0.00225133
0.00166689
0.00121667
0.000875475
0.000621051
0.000434354
0.000299514
0.000203646
0.000136539
9.02804e-05
5.88749e-05
3.78713e-05
2.40313e-05
1.50447e-05
9.29337e-06
5.665e-06
3.40812e-06
2.02381e-06
1.18636e-06
6.86604e-07
3.92369e-07
2.21429e-07
1.23417e-07
6.79473e-08
3.69552e-08
1.98581e-08
1.05441e-08
5.53277e-09
2.86935e-09
1.47097e-09
7.45148e-10
3.75315e-10
1.73046e-10
1.73046e-10
1.29313e-07
-1.29313e-07
2.38864e-07
4.46746e-06
2.01123e-05
6.11026e-05
0.000148704
0.000310434
0.000577098
0.000979211
0.00154414
0.00229449
0.00324761
0.0044157
0.00580633
0.00742297
0.00926566
0.0113315
0.0136148
0.0161075
0.0187986
0.0216735
0.0247143
0.0278987
0.0312001
0.034588
0.038028
0.0414827
0.0449125
0.0482762
0.0515322
0.0546394
0.0575578
0.0602495
0.0626791
0.0648141
0.0666254
0.0680873
0.0691777
0.0698785
0.0701752
0.0700574
0.0695191
0.068559
0.0671807
0.0653937
0.0632133
0.0606621
0.0577693
0.0545719
0.0511144
0.047448
0.0436301
0.0397228
0.0357907
0.0318986
0.0281093
0.0244803
0.021062
0.0178953
0.0150104
0.0124259
0.0101494
0.0081776
0.00649847
0.00509248
0.00393487
0.00299761
0.00225133
0.00166689
0.00121667
0.000875475
0.000621051
0.000434354
0.000299514
0.000203646
0.000136539
9.02804e-05
5.88749e-05
3.78713e-05
2.40313e-05
1.50447e-05
9.29337e-06
5.665e-06
3.40812e-06
2.02381e-06
1.18636e-06
6.86604e-07
3.92369e-07
2.21429e-07
1.23417e-07
6.79473e-08
3.69552e-08
1.98581e-08
1.05441e-08
5.53277e-09
2.86935e-09
1.47097e-09
7.45148e-10
3.75315e-10
1.73046e-10
1.73046e-10
