# vtk DataFile Version 2.0
FlowField
ASCII
DATASET STRUCTURED_GRID
DIMENSIONS 102 1 12 
POINTS 1224 double
0 0 0
0.3 0 0
0.6 0 0
0.9 0 0
1.2 0 0
1.5 0 0
1.8 0 0
2.1 0 0
2.4 0 0
2.7 0 0
3 0 0
3.3 0 0
3.6 0 0
3.9 0 0
4.2 0 0
4.5 0 0
4.8 0 0
5.1 0 0
5.4 0 0
5.7 0 0
6 0 0
6.3 0 0
6.6 0 0
6.9 0 0
7.2 0 0
7.5 0 0
7.8 0 0
8.1 0 0
8.4 0 0
8.7 0 0
9 0 0
9.3 0 0
9.6 0 0
9.9 0 0
10.2 0 0
10.5 0 0
10.8 0 0
11.1 0 0
11.4 0 0
11.7 0 0
12 0 0
12.3 0 0
12.6 0 0
12.9 0 0
13.2 0 0
13.5 0 0
13.8 0 0
14.1 0 0
14.4 0 0
14.7 0 0
15 0 0
15.3 0 0
15.6 0 0
15.9 0 0
16.2 0 0
16.5 0 0
16.8 0 0
17.1 0 0
17.4 0 0
17.7 0 0
18 0 0
18.3 0 0
18.6 0 0
18.9 0 0
19.2 0 0
19.5 0 0
19.8 0 0
20.1 0 0
20.4 0 0
20.7 0 0
21 0 0
21.3 0 0
21.6 0 0
21.9 0 0
22.2 0 0
22.5 0 0
22.8 0 0
23.1 0 0
23.4 0 0
23.7 0 0
24 0 0
24.3 0 0
24.6 0 0
24.9 0 0
25.2 0 0
25.5 0 0
25.8 0 0
26.1 0 0
26.4 0 0
26.7 0 0
27 0 0
27.3 0 0
27.6 0 0
27.9 0 0
28.2 0 0
28.5 0 0
28.8 0 0
29.1 0 0
29.4 0 0
29.7 0 0
30 0 0
30.3 0 0
0 0.1 0
0.3 0.1 0
0.6 0.1 0
0.9 0.1 0
1.2 0.1 0
1.5 0.1 0
1.8 0.1 0
2.1 0.1 0
2.4 0.1 0
2.7 0.1 0
3 0.1 0
3.3 0.1 0
3.6 0.1 0
3.9 0.1 0
4.2 0.1 0
4.5 0.1 0
4.8 0.1 0
5.1 0.1 0
5.4 0.1 0
5.7 0.1 0
6 0.1 0
6.3 0.1 0
6.6 0.1 0
6.9 0.1 0
7.2 0.1 0
7.5 0.1 0
7.8 0.1 0
8.1 0.1 0
8.4 0.1 0
8.7 0.1 0
9 0.1 0
9.3 0.1 0
9.6 0.1 0
9.9 0.1 0
10.2 0.1 0
10.5 0.1 0
10.8 0.1 0
11.1 0.1 0
11.4 0.1 0
11.7 0.1 0
12 0.1 0
12.3 0.1 0
12.6 0.1 0
12.9 0.1 0
13.2 0.1 0
13.5 0.1 0
13.8 0.1 0
14.1 0.1 0
14.4 0.1 0
14.7 0.1 0
15 0.1 0
15.3 0.1 0
15.6 0.1 0
15.9 0.1 0
16.2 0.1 0
16.5 0.1 0
16.8 0.1 0
17.1 0.1 0
17.4 0.1 0
17.7 0.1 0
18 0.1 0
18.3 0.1 0
18.6 0.1 0
18.9 0.1 0
19.2 0.1 0
19.5 0.1 0
19.8 0.1 0
20.1 0.1 0
20.4 0.1 0
20.7 0.1 0
21 0.1 0
21.3 0.1 0
21.6 0.1 0
21.9 0.1 0
22.2 0.1 0
22.5 0.1 0
22.8 0.1 0
23.1 0.1 0
23.4 0.1 0
23.7 0.1 0
24 0.1 0
24.3 0.1 0
24.6 0.1 0
24.9 0.1 0
25.2 0.1 0
25.5 0.1 0
25.8 0.1 0
26.1 0.1 0
26.4 0.1 0
26.7 0.1 0
27 0.1 0
27.3 0.1 0
27.6 0.1 0
27.9 0.1 0
28.2 0.1 0
28.5 0.1 0
28.8 0.1 0
29.1 0.1 0
29.4 0.1 0
29.7 0.1 0
30 0.1 0
30.3 0.1 0
0 0.2 0
0.3 0.2 0
0.6 0.2 0
0.9 0.2 0
1.2 0.2 0
1.5 0.2 0
1.8 0.2 0
2.1 0.2 0
2.4 0.2 0
2.7 0.2 0
3 0.2 0
3.3 0.2 0
3.6 0.2 0
3.9 0.2 0
4.2 0.2 0
4.5 0.2 0
4.8 0.2 0
5.1 0.2 0
5.4 0.2 0
5.7 0.2 0
6 0.2 0
6.3 0.2 0
6.6 0.2 0
6.9 0.2 0
7.2 0.2 0
7.5 0.2 0
7.8 0.2 0
8.1 0.2 0
8.4 0.2 0
8.7 0.2 0
9 0.2 0
9.3 0.2 0
9.6 0.2 0
9.9 0.2 0
10.2 0.2 0
10.5 0.2 0
10.8 0.2 0
11.1 0.2 0
11.4 0.2 0
11.7 0.2 0
12 0.2 0
12.3 0.2 0
12.6 0.2 0
12.9 0.2 0
13.2 0.2 0
13.5 0.2 0
13.8 0.2 0
14.1 0.2 0
14.4 0.2 0
14.7 0.2 0
15 0.2 0
15.3 0.2 0
15.6 0.2 0
15.9 0.2 0
16.2 0.2 0
16.5 0.2 0
16.8 0.2 0
17.1 0.2 0
17.4 0.2 0
17.7 0.2 0
18 0.2 0
18.3 0.2 0
18.6 0.2 0
18.9 0.2 0
19.2 0.2 0
19.5 0.2 0
19.8 0.2 0
20.1 0.2 0
20.4 0.2 0
20.7 0.2 0
21 0.2 0
21.3 0.2 0
21.6 0.2 0
21.9 0.2 0
22.2 0.2 0
22.5 0.2 0
22.8 0.2 0
23.1 0.2 0
23.4 0.2 0
23.7 0.2 0
24 0.2 0
24.3 0.2 0
24.6 0.2 0
24.9 0.2 0
25.2 0.2 0
25.5 0.2 0
25.8 0.2 0
26.1 0.2 0
26.4 0.2 0
26.7 0.2 0
27 0.2 0
27.3 0.2 0
27.6 0.2 0
27.9 0.2 0
28.2 0.2 0
28.5 0.2 0
28.8 0.2 0
29.1 0.2 0
29.4 0.2 0
29.7 0.2 0
30 0.2 0
30.3 0.2 0
0 0.3 0
0.3 0.3 0
0.6 0.3 0
0.9 0.3 0
1.2 0.3 0
1.5 0.3 0
1.8 0.3 0
2.1 0.3 0
2.4 0.3 0
2.7 0.3 0
3 0.3 0
3.3 0.3 0
3.6 0.3 0
3.9 0.3 0
4.2 0.3 0
4.5 0.3 0
4.8 0.3 0
5.1 0.3 0
5.4 0.3 0
5.7 0.3 0
6 0.3 0
6.3 0.3 0
6.6 0.3 0
6.9 0.3 0
7.2 0.3 0
7.5 0.3 0
7.8 0.3 0
8.1 0.3 0
8.4 0.3 0
8.7 0.3 0
9 0.3 0
9.3 0.3 0
9.6 0.3 0
9.9 0.3 0
10.2 0.3 0
10.5 0.3 0
10.8 0.3 0
11.1 0.3 0
11.4 0.3 0
11.7 0.3 0
12 0.3 0
12.3 0.3 0
12.6 0.3 0
12.9 0.3 0
13.2 0.3 0
13.5 0.3 0
13.8 0.3 0
14.1 0.3 0
14.4 0.3 0
14.7 0.3 0
15 0.3 0
15.3 0.3 0
15.6 0.3 0
15.9 0.3 0
16.2 0.3 0
16.5 0.3 0
16.8 0.3 0
17.1 0.3 0
17.4 0.3 0
17.7 0.3 0
18 0.3 0
18.3 0.3 0
18.6 0.3 0
18.9 0.3 0
19.2 0.3 0
19.5 0.3 0
19.8 0.3 0
20.1 0.3 0
20.4 0.3 0
20.7 0.3 0
21 0.3 0
21.3 0.3 0
21.6 0.3 0
21.9 0.3 0
22.2 0.3 0
22.5 0.3 0
22.8 0.3 0
23.1 0.3 0
23.4 0.3 0
23.7 0.3 0
24 0.3 0
24.3 0.3 0
24.6 0.3 0
24.9 0.3 0
25.2 0.3 0
25.5 0.3 0
25.8 0.3 0
26.1 0.3 0
26.4 0.3 0
26.7 0.3 0
27 0.3 0
27.3 0.3 0
27.6 0.3 0
27.9 0.3 0
28.2 0.3 0
28.5 0.3 0
28.8 0.3 0
29.1 0.3 0
29.4 0.3 0
29.7 0.3 0
30 0.3 0
30.3 0.3 0
0 0.4 0
0.3 0.4 0
0.6 0.4 0
0.9 0.4 0
1.2 0.4 0
1.5 0.4 0
1.8 0.4 0
2.1 0.4 0
2.4 0.4 0
2.7 0.4 0
3 0.4 0
3.3 0.4 0
3.6 0.4 0
3.9 0.4 0
4.2 0.4 0
4.5 0.4 0
4.8 0.4 0
5.1 0.4 0
5.4 0.4 0
5.7 0.4 0
6 0.4 0
6.3 0.4 0
6.6 0.4 0
6.9 0.4 0
7.2 0.4 0
7.5 0.4 0
7.8 0.4 0
8.1 0.4 0
8.4 0.4 0
8.7 0.4 0
9 0.4 0
9.3 0.4 0
9.6 0.4 0
9.9 0.4 0
10.2 0.4 0
10.5 0.4 0
10.8 0.4 0
11.1 0.4 0
11.4 0.4 0
11.7 0.4 0
12 0.4 0
12.3 0.4 0
12.6 0.4 0
12.9 0.4 0
13.2 0.4 0
13.5 0.4 0
13.8 0.4 0
14.1 0.4 0
14.4 0.4 0
14.7 0.4 0
15 0.4 0
15.3 0.4 0
15.6 0.4 0
15.9 0.4 0
16.2 0.4 0
16.5 0.4 0
16.8 0.4 0
17.1 0.4 0
17.4 0.4 0
17.7 0.4 0
18 0.4 0
18.3 0.4 0
18.6 0.4 0
18.9 0.4 0
19.2 0.4 0
19.5 0.4 0
19.8 0.4 0
20.1 0.4 0
20.4 0.4 0
20.7 0.4 0
21 0.4 0
21.3 0.4 0
21.6 0.4 0
21.9 0.4 0
22.2 0.4 0
22.5 0.4 0
22.8 0.4 0
23.1 0.4 0
23.4 0.4 0
23.7 0.4 0
24 0.4 0
24.3 0.4 0
24.6 0.4 0
24.9 0.4 0
25.2 0.4 0
25.5 0.4 0
25.8 0.4 0
26.1 0.4 0
26.4 0.4 0
26.7 0.4 0
27 0.4 0
27.3 0.4 0
27.6 0.4 0
27.9 0.4 0
28.2 0.4 0
28.5 0.4 0
28.8 0.4 0
29.1 0.4 0
29.4 0.4 0
29.7 0.4 0
30 0.4 0
30.3 0.4 0
0 0.5 0
0.3 0.5 0
0.6 0.5 0
0.9 0.5 0
1.2 0.5 0
1.5 0.5 0
1.8 0.5 0
2.1 0.5 0
2.4 0.5 0
2.7 0.5 0
3 0.5 0
3.3 0.5 0
3.6 0.5 0
3.9 0.5 0
4.2 0.5 0
4.5 0.5 0
4.8 0.5 0
5.1 0.5 0
5.4 0.5 0
5.7 0.5 0
6 0.5 0
6.3 0.5 0
6.6 0.5 0
6.9 0.5 0
7.2 0.5 0
7.5 0.5 0
7.8 0.5 0
8.1 0.5 0
8.4 0.5 0
8.7 0.5 0
9 0.5 0
9.3 0.5 0
9.6 0.5 0
9.9 0.5 0
10.2 0.5 0
10.5 0.5 0
10.8 0.5 0
11.1 0.5 0
11.4 0.5 0
11.7 0.5 0
12 0.5 0
12.3 0.5 0
12.6 0.5 0
12.9 0.5 0
13.2 0.5 0
13.5 0.5 0
13.8 0.5 0
14.1 0.5 0
14.4 0.5 0
14.7 0.5 0
15 0.5 0
15.3 0.5 0
15.6 0.5 0
15.9 0.5 0
16.2 0.5 0
16.5 0.5 0
16.8 0.5 0
17.1 0.5 0
17.4 0.5 0
17.7 0.5 0
18 0.5 0
18.3 0.5 0
18.6 0.5 0
18.9 0.5 0
19.2 0.5 0
19.5 0.5 0
19.8 0.5 0
20.1 0.5 0
20.4 0.5 0
20.7 0.5 0
21 0.5 0
21.3 0.5 0
21.6 0.5 0
21.9 0.5 0
22.2 0.5 0
22.5 0.5 0
22.8 0.5 0
23.1 0.5 0
23.4 0.5 0
23.7 0.5 0
24 0.5 0
24.3 0.5 0
24.6 0.5 0
24.9 0.5 0
25.2 0.5 0
25.5 0.5 0
25.8 0.5 0
26.1 0.5 0
26.4 0.5 0
26.7 0.5 0
27 0.5 0
27.3 0.5 0
27.6 0.5 0
27.9 0.5 0
28.2 0.5 0
28.5 0.5 0
28.8 0.5 0
29.1 0.5 0
29.4 0.5 0
29.7 0.5 0
30 0.5 0
30.3 0.5 0
0 0.6 0
0.3 0.6 0
0.6 0.6 0
0.9 0.6 0
1.2 0.6 0
1.5 0.6 0
1.8 0.6 0
2.1 0.6 0
2.4 0.6 0
2.7 0.6 0
3 0.6 0
3.3 0.6 0
3.6 0.6 0
3.9 0.6 0
4.2 0.6 0
4.5 0.6 0
4.8 0.6 0
5.1 0.6 0
5.4 0.6 0
5.7 0.6 0
6 0.6 0
6.3 0.6 0
6.6 0.6 0
6.9 0.6 0
7.2 0.6 0
7.5 0.6 0
7.8 0.6 0
8.1 0.6 0
8.4 0.6 0
8.7 0.6 0
9 0.6 0
9.3 0.6 0
9.6 0.6 0
9.9 0.6 0
10.2 0.6 0
10.5 0.6 0
10.8 0.6 0
11.1 0.6 0
11.4 0.6 0
11.7 0.6 0
12 0.6 0
12.3 0.6 0
12.6 0.6 0
12.9 0.6 0
13.2 0.6 0
13.5 0.6 0
13.8 0.6 0
14.1 0.6 0
14.4 0.6 0
14.7 0.6 0
15 0.6 0
15.3 0.6 0
15.6 0.6 0
15.9 0.6 0
16.2 0.6 0
16.5 0.6 0
16.8 0.6 0
17.1 0.6 0
17.4 0.6 0
17.7 0.6 0
18 0.6 0
18.3 0.6 0
18.6 0.6 0
18.9 0.6 0
19.2 0.6 0
19.5 0.6 0
19.8 0.6 0
20.1 0.6 0
20.4 0.6 0
20.7 0.6 0
21 0.6 0
21.3 0.6 0
21.6 0.6 0
21.9 0.6 0
22.2 0.6 0
22.5 0.6 0
22.8 0.6 0
23.1 0.6 0
23.4 0.6 0
23.7 0.6 0
24 0.6 0
24.3 0.6 0
24.6 0.6 0
24.9 0.6 0
25.2 0.6 0
25.5 0.6 0
25.8 0.6 0
26.1 0.6 0
26.4 0.6 0
26.7 0.6 0
27 0.6 0
27.3 0.6 0
27.6 0.6 0
27.9 0.6 0
28.2 0.6 0
28.5 0.6 0
28.8 0.6 0
29.1 0.6 0
29.4 0.6 0
29.7 0.6 0
30 0.6 0
30.3 0.6 0
0 0.7 0
0.3 0.7 0
0.6 0.7 0
0.9 0.7 0
1.2 0.7 0
1.5 0.7 0
1.8 0.7 0
2.1 0.7 0
2.4 0.7 0
2.7 0.7 0
3 0.7 0
3.3 0.7 0
3.6 0.7 0
3.9 0.7 0
4.2 0.7 0
4.5 0.7 0
4.8 0.7 0
5.1 0.7 0
5.4 0.7 0
5.7 0.7 0
6 0.7 0
6.3 0.7 0
6.6 0.7 0
6.9 0.7 0
7.2 0.7 0
7.5 0.7 0
7.8 0.7 0
8.1 0.7 0
8.4 0.7 0
8.7 0.7 0
9 0.7 0
9.3 0.7 0
9.6 0.7 0
9.9 0.7 0
10.2 0.7 0
10.5 0.7 0
10.8 0.7 0
11.1 0.7 0
11.4 0.7 0
11.7 0.7 0
12 0.7 0
12.3 0.7 0
12.6 0.7 0
12.9 0.7 0
13.2 0.7 0
13.5 0.7 0
13.8 0.7 0
14.1 0.7 0
14.4 0.7 0
14.7 0.7 0
15 0.7 0
15.3 0.7 0
15.6 0.7 0
15.9 0.7 0
16.2 0.7 0
16.5 0.7 0
16.8 0.7 0
17.1 0.7 0
17.4 0.7 0
17.7 0.7 0
18 0.7 0
18.3 0.7 0
18.6 0.7 0
18.9 0.7 0
19.2 0.7 0
19.5 0.7 0
19.8 0.7 0
20.1 0.7 0
20.4 0.7 0
20.7 0.7 0
21 0.7 0
21.3 0.7 0
21.6 0.7 0
21.9 0.7 0
22.2 0.7 0
22.5 0.7 0
22.8 0.7 0
23.1 0.7 0
23.4 0.7 0
23.7 0.7 0
24 0.7 0
24.3 0.7 0
24.6 0.7 0
24.9 0.7 0
25.2 0.7 0
25.5 0.7 0
25.8 0.7 0
26.1 0.7 0
26.4 0.7 0
26.7 0.7 0
27 0.7 0
27.3 0.7 0
27.6 0.7 0
27.9 0.7 0
28.2 0.7 0
28.5 0.7 0
28.8 0.7 0
29.1 0.7 0
29.4 0.7 0
29.7 0.7 0
30 0.7 0
30.3 0.7 0
0 0.8 0
0.3 0.8 0
0.6 0.8 0
0.9 0.8 0
1.2 0.8 0
1.5 0.8 0
1.8 0.8 0
2.1 0.8 0
2.4 0.8 0
2.7 0.8 0
3 0.8 0
3.3 0.8 0
3.6 0.8 0
3.9 0.8 0
4.2 0.8 0
4.5 0.8 0
4.8 0.8 0
5.1 0.8 0
5.4 0.8 0
5.7 0.8 0
6 0.8 0
6.3 0.8 0
6.6 0.8 0
6.9 0.8 0
7.2 0.8 0
7.5 0.8 0
7.8 0.8 0
8.1 0.8 0
8.4 0.8 0
8.7 0.8 0
9 0.8 0
9.3 0.8 0
9.6 0.8 0
9.9 0.8 0
10.2 0.8 0
10.5 0.8 0
10.8 0.8 0
11.1 0.8 0
11.4 0.8 0
11.7 0.8 0
12 0.8 0
12.3 0.8 0
12.6 0.8 0
12.9 0.8 0
13.2 0.8 0
13.5 0.8 0
13.8 0.8 0
14.1 0.8 0
14.4 0.8 0
14.7 0.8 0
15 0.8 0
15.3 0.8 0
15.6 0.8 0
15.9 0.8 0
16.2 0.8 0
16.5 0.8 0
16.8 0.8 0
17.1 0.8 0
17.4 0.8 0
17.7 0.8 0
18 0.8 0
18.3 0.8 0
18.6 0.8 0
18.9 0.8 0
19.2 0.8 0
19.5 0.8 0
19.8 0.8 0
20.1 0.8 0
20.4 0.8 0
20.7 0.8 0
21 0.8 0
21.3 0.8 0
21.6 0.8 0
21.9 0.8 0
22.2 0.8 0
22.5 0.8 0
22.8 0.8 0
23.1 0.8 0
23.4 0.8 0
23.7 0.8 0
24 0.8 0
24.3 0.8 0
24.6 0.8 0
24.9 0.8 0
25.2 0.8 0
25.5 0.8 0
25.8 0.8 0
26.1 0.8 0
26.4 0.8 0
26.7 0.8 0
27 0.8 0
27.3 0.8 0
27.6 0.8 0
27.9 0.8 0
28.2 0.8 0
28.5 0.8 0
28.8 0.8 0
29.1 0.8 0
29.4 0.8 0
29.7 0.8 0
30 0.8 0
30.3 0.8 0
0 0.9 0
0.3 0.9 0
0.6 0.9 0
0.9 0.9 0
1.2 0.9 0
1.5 0.9 0
1.8 0.9 0
2.1 0.9 0
2.4 0.9 0
2.7 0.9 0
3 0.9 0
3.3 0.9 0
3.6 0.9 0
3.9 0.9 0
4.2 0.9 0
4.5 0.9 0
4.8 0.9 0
5.1 0.9 0
5.4 0.9 0
5.7 0.9 0
6 0.9 0
6.3 0.9 0
6.6 0.9 0
6.9 0.9 0
7.2 0.9 0
7.5 0.9 0
7.8 0.9 0
8.1 0.9 0
8.4 0.9 0
8.7 0.9 0
9 0.9 0
9.3 0.9 0
9.6 0.9 0
9.9 0.9 0
10.2 0.9 0
10.5 0.9 0
10.8 0.9 0
11.1 0.9 0
11.4 0.9 0
11.7 0.9 0
12 0.9 0
12.3 0.9 0
12.6 0.9 0
12.9 0.9 0
13.2 0.9 0
13.5 0.9 0
13.8 0.9 0
14.1 0.9 0
14.4 0.9 0
14.7 0.9 0
15 0.9 0
15.3 0.9 0
15.6 0.9 0
15.9 0.9 0
16.2 0.9 0
16.5 0.9 0
16.8 0.9 0
17.1 0.9 0
17.4 0.9 0
17.7 0.9 0
18 0.9 0
18.3 0.9 0
18.6 0.9 0
18.9 0.9 0
19.2 0.9 0
19.5 0.9 0
19.8 0.9 0
20.1 0.9 0
20.4 0.9 0
20.7 0.9 0
21 0.9 0
21.3 0.9 0
21.6 0.9 0
21.9 0.9 0
22.2 0.9 0
22.5 0.9 0
22.8 0.9 0
23.1 0.9 0
23.4 0.9 0
23.7 0.9 0
24 0.9 0
24.3 0.9 0
24.6 0.9 0
24.9 0.9 0
25.2 0.9 0
25.5 0.9 0
25.8 0.9 0
26.1 0.9 0
26.4 0.9 0
26.7 0.9 0
27 0.9 0
27.3 0.9 0
27.6 0.9 0
27.9 0.9 0
28.2 0.9 0
28.5 0.9 0
28.8 0.9 0
29.1 0.9 0
29.4 0.9 0
29.7 0.9 0
30 0.9 0
30.3 0.9 0
0 1 0
0.3 1 0
0.6 1 0
0.9 1 0
1.2 1 0
1.5 1 0
1.8 1 0
2.1 1 0
2.4 1 0
2.7 1 0
3 1 0
3.3 1 0
3.6 1 0
3.9 1 0
4.2 1 0
4.5 1 0
4.8 1 0
5.1 1 0
5.4 1 0
5.7 1 0
6 1 0
6.3 1 0
6.6 1 0
6.9 1 0
7.2 1 0
7.5 1 0
7.8 1 0
8.1 1 0
8.4 1 0
8.7 1 0
9 1 0
9.3 1 0
9.6 1 0
9.9 1 0
10.2 1 0
10.5 1 0
10.8 1 0
11.1 1 0
11.4 1 0
11.7 1 0
12 1 0
12.3 1 0
12.6 1 0
12.9 1 0
13.2 1 0
13.5 1 0
13.8 1 0
14.1 1 0
14.4 1 0
14.7 1 0
15 1 0
15.3 1 0
15.6 1 0
15.9 1 0
16.2 1 0
16.5 1 0
16.8 1 0
17.1 1 0
17.4 1 0
17.7 1 0
18 1 0
18.3 1 0
18.6 1 0
18.9 1 0
19.2 1 0
19.5 1 0
19.8 1 0
20.1 1 0
20.4 1 0
20.7 1 0
21 1 0
21.3 1 0
21.6 1 0
21.9 1 0
22.2 1 0
22.5 1 0
22.8 1 0
23.1 1 0
23.4 1 0
23.7 1 0
24 1 0
24.3 1 0
24.6 1 0
24.9 1 0
25.2 1 0
25.5 1 0
25.8 1 0
26.1 1 0
26.4 1 0
26.7 1 0
27 1 0
27.3 1 0
27.6 1 0
27.9 1 0
28.2 1 0
28.5 1 0
28.8 1 0
29.1 1 0
29.4 1 0
29.7 1 0
30 1 0
30.3 1 0
0 1.1 0
0.3 1.1 0
0.6 1.1 0
0.9 1.1 0
1.2 1.1 0
1.5 1.1 0
1.8 1.1 0
2.1 1.1 0
2.4 1.1 0
2.7 1.1 0
3 1.1 0
3.3 1.1 0
3.6 1.1 0
3.9 1.1 0
4.2 1.1 0
4.5 1.1 0
4.8 1.1 0
5.1 1.1 0
5.4 1.1 0
5.7 1.1 0
6 1.1 0
6.3 1.1 0
6.6 1.1 0
6.9 1.1 0
7.2 1.1 0
7.5 1.1 0
7.8 1.1 0
8.1 1.1 0
8.4 1.1 0
8.7 1.1 0
9 1.1 0
9.3 1.1 0
9.6 1.1 0
9.9 1.1 0
10.2 1.1 0
10.5 1.1 0
10.8 1.1 0
11.1 1.1 0
11.4 1.1 0
11.7 1.1 0
12 1.1 0
12.3 1.1 0
12.6 1.1 0
12.9 1.1 0
13.2 1.1 0
13.5 1.1 0
13.8 1.1 0
14.1 1.1 0
14.4 1.1 0
14.7 1.1 0
15 1.1 0
15.3 1.1 0
15.6 1.1 0
15.9 1.1 0
16.2 1.1 0
16.5 1.1 0
16.8 1.1 0
17.1 1.1 0
17.4 1.1 0
17.7 1.1 0
18 1.1 0
18.3 1.1 0
18.6 1.1 0
18.9 1.1 0
19.2 1.1 0
19.5 1.1 0
19.8 1.1 0
20.1 1.1 0
20.4 1.1 0
20.7 1.1 0
21 1.1 0
21.3 1.1 0
21.6 1.1 0
21.9 1.1 0
22.2 1.1 0
22.5 1.1 0
22.8 1.1 0
23.1 1.1 0
23.4 1.1 0
23.7 1.1 0
24 1.1 0
24.3 1.1 0
24.6 1.1 0
24.9 1.1 0
25.2 1.1 0
25.5 1.1 0
25.8 1.1 0
26.1 1.1 0
26.4 1.1 0
26.7 1.1 0
27 1.1 0
27.3 1.1 0
27.6 1.1 0
27.9 1.1 0
28.2 1.1 0
28.5 1.1 0
28.8 1.1 0
29.1 1.1 0
29.4 1.1 0
29.7 1.1 0
30 1.1 0
30.3 1.1 0

POINT_DATA 1224

SCALARS F double
LOOKUP_TABLE default
0
0
0
0
0
0
0
0
0
0
0
0
0
0
0
0
0
0
0
0
0
0
0
0
0
0
0
0
0
0
0
0
0
0
0
0
0
0
0
0
0
0
0
0
0
0
0
0
0
0
0
0
0
0
0
0
0
0
0
0
0
0
0
0
0
0
0
0
0
0
0
0
0
0
0
0
0
0
0
0
0
0
0
0
0
0
0
0
0
0
0
0
0
0
0
0
0
0
0
0
0
0
1
0.806579
0.640866
0.525903
0.45319
0.408664
0.381031
0.363032
0.350521
0.341257
0.334044
0.328228
0.323425
0.319396
0.31598
0.313059
0.310548
0.308381
0.30651
0.304897
0.303516
0.302346
0.301369
0.300569
0.299927
0.299425
0.299043
0.298759
0.298555
0.298413
0.298316
0.298252
0.298211
0.298185
0.29817
0.298161
0.298155
0.298152
0.298151
0.29815
0.29815
0.298149
0.298149
0.298149
0.298149
0.298149
0.298149
0.298149
0.298149
0.298149
0.298149
0.298149
0.298149
0.298149
0.298149
0.298149
0.298149
0.298149
0.298149
0.298149
0.298149
0.298149
0.298149
0.298149
0.298149
0.298149
0.298149
0.298149
0.298149
0.298149
0.298149
0.298149
0.298149
0.298149
0.298149
0.298149
0.298149
0.298149
0.298149
0.298149
0.298149
0.298149
0.298149
0.298149
0.298149
0.298149
0.298149
0.298149
0.298149
0.298149
0.29815
0.29815
0.29815
0.29815
0.29815
0.29815
0.29815
0.298151
0.298151
0.298157
0.298979
0
1
1.0311
1.01711
0.987294
0.955434
0.926359
0.901393
0.880495
0.863153
0.848764
0.836774
0.826725
0.818249
0.811053
0.804911
0.799642
0.795105
0.791189
0.787809
0.784902
0.782418
0.780319
0.778572
0.777143
0.776001
0.775109
0.774431
0.773929
0.773568
0.773316
0.773145
0.773032
0.77296
0.772916
0.772888
0.772873
0.772863
0.772858
0.772856
0.772854
0.772853
0.772853
0.772853
0.772853
0.772853
0.772853
0.772853
0.772853
0.772853
0.772853
0.772853
0.772853
0.772853
0.772853
0.772853
0.772853
0.772853
0.772853
0.772853
0.772853
0.772853
0.772853
0.772853
0.772853
0.772853
0.772853
0.772853
0.772853
0.772853
0.772853
0.772853
0.772853
0.772853
0.772853
0.772853
0.772853
0.772853
0.772853
0.772853
0.772853
0.772853
0.772853
0.772853
0.772853
0.772853
0.772853
0.772853
0.772853
0.772853
0.772853
0.772854
0.772854
0.772854
0.772854
0.772854
0.772854
0.772854
0.772855
0.772855
0.772887
0.773729
0
1
1.05745
1.10681
1.1371
1.1529
1.15954
1.16092
1.1595
1.15673
1.15338
1.1499
1.1465
1.1433
1.14035
1.13768
1.13527
1.13312
1.13122
1.12953
1.12805
1.12676
1.12565
1.1247
1.12391
1.12327
1.12275
1.12234
1.12203
1.1218
1.12164
1.12152
1.12144
1.12139
1.12136
1.12134
1.12132
1.12132
1.12131
1.12131
1.12131
1.12131
1.12131
1.12131
1.12131
1.12131
1.12131
1.12131
1.12131
1.12131
1.12131
1.12131
1.12131
1.12131
1.12131
1.12131
1.12131
1.12131
1.12131
1.12131
1.12131
1.12131
1.12131
1.12131
1.12131
1.12131
1.12131
1.12131
1.12131
1.12131
1.12131
1.12131
1.12131
1.12131
1.12131
1.12131
1.12131
1.12131
1.12131
1.12131
1.12131
1.12131
1.12131
1.12131
1.12131
1.12131
1.12131
1.12131
1.12131
1.12131
1.12131
1.12131
1.12131
1.12131
1.12131
1.12131
1.12131
1.12131
1.12131
1.12131
1.12133
1.12215
0
1
1.04931
1.11418
1.16891
1.20978
1.2393
1.26081
1.27692
1.28936
1.29922
1.3072
1.31374
1.31918
1.32374
1.32758
1.33085
1.33364
1.33602
1.33807
1.33982
1.34131
1.34256
1.3436
1.34444
1.34511
1.34563
1.34602
1.3463
1.3465
1.34664
1.34674
1.3468
1.34683
1.34686
1.34687
1.34688
1.34688
1.34688
1.34689
1.34689
1.34689
1.34689
1.34689
1.34689
1.34689
1.34689
1.34689
1.34689
1.34689
1.34689
1.34689
1.34689
1.34689
1.34689
1.34689
1.34689
1.34689
1.34689
1.34689
1.34689
1.34689
1.34689
1.34689
1.34689
1.34689
1.34689
1.34689
1.34689
1.34689
1.34689
1.34689
1.34689
1.34689
1.34689
1.34689
1.34689
1.34689
1.34689
1.34689
1.34689
1.34689
1.34689
1.34689
1.34689
1.34689
1.34689
1.34689
1.34689
1.34689
1.34689
1.34689
1.34689
1.34689
1.34689
1.34689
1.34689
1.34689
1.34689
1.34689
1.34687
1.34764
0
1
1.04226
1.10811
1.16939
1.21908
1.25799
1.28874
1.31363
1.3343
1.35178
1.36674
1.37966
1.39087
1.40062
1.40912
1.41655
1.42305
1.42873
1.43369
1.438
1.44172
1.4449
1.44758
1.44979
1.45159
1.45301
1.45411
1.45494
1.45555
1.45598
1.45628
1.45648
1.45661
1.4567
1.45675
1.45678
1.4568
1.45681
1.45681
1.45682
1.45682
1.45682
1.45682
1.45682
1.45682
1.45682
1.45682
1.45682
1.45682
1.45682
1.45682
1.45682
1.45682
1.45682
1.45682
1.45682
1.45682
1.45682
1.45682
1.45682
1.45682
1.45682
1.45682
1.45682
1.45682
1.45682
1.45682
1.45682
1.45682
1.45682
1.45682
1.45682
1.45682
1.45682
1.45682
1.45682
1.45682
1.45682
1.45682
1.45682
1.45682
1.45682
1.45682
1.45682
1.45682
1.45682
1.45682
1.45682
1.45682
1.45682
1.45682
1.45682
1.45682
1.45682
1.45682
1.45682
1.45682
1.45682
1.45682
1.45678
1.45751
0
1
1.04226
1.10811
1.16939
1.21908
1.25799
1.28874
1.31364
1.3343
1.35178
1.36674
1.37966
1.39087
1.40062
1.40912
1.41655
1.42305
1.42873
1.43369
1.438
1.44172
1.4449
1.44758
1.44979
1.45159
1.45301
1.45411
1.45494
1.45555
1.45598
1.45628
1.45648
1.45661
1.4567
1.45675
1.45678
1.4568
1.45681
1.45681
1.45682
1.45682
1.45682
1.45682
1.45682
1.45682
1.45682
1.45682
1.45682
1.45682
1.45682
1.45682
1.45682
1.45682
1.45682
1.45682
1.45682
1.45682
1.45682
1.45682
1.45682
1.45682
1.45682
1.45682
1.45682
1.45682
1.45682
1.45682
1.45682
1.45682
1.45682
1.45682
1.45682
1.45682
1.45682
1.45682
1.45682
1.45682
1.45682
1.45682
1.45682
1.45682
1.45682
1.45682
1.45682
1.45682
1.45682
1.45682
1.45682
1.45682
1.45682
1.45682
1.45682
1.45682
1.45682
1.45682
1.45682
1.45682
1.45682
1.45682
1.45678
1.45751
0
1
1.04931
1.11418
1.16891
1.20978
1.2393
1.26081
1.27692
1.28936
1.29922
1.3072
1.31375
1.31918
1.32374
1.32758
1.33085
1.33364
1.33602
1.33807
1.33982
1.34131
1.34256
1.3436
1.34444
1.34511
1.34563
1.34602
1.3463
1.3465
1.34664
1.34674
1.3468
1.34683
1.34686
1.34687
1.34688
1.34688
1.34688
1.34689
1.34689
1.34689
1.34689
1.34689
1.34689
1.34689
1.34689
1.34689
1.34689
1.34689
1.34689
1.34689
1.34689
1.34689
1.34689
1.34689
1.34689
1.34689
1.34689
1.34689
1.34689
1.34689
1.34689
1.34689
1.34689
1.34689
1.34689
1.34689
1.34689
1.34689
1.34689
1.34689
1.34689
1.34689
1.34689
1.34689
1.34689
1.34689
1.34689
1.34689
1.34689
1.34689
1.34689
1.34689
1.34689
1.34689
1.34689
1.34689
1.34689
1.34689
1.34689
1.34689
1.34689
1.34689
1.34689
1.34689
1.34689
1.34689
1.34689
1.34689
1.34687
1.34764
0
1
1.05745
1.10681
1.1371
1.1529
1.15954
1.16092
1.1595
1.15673
1.15338
1.1499
1.1465
1.1433
1.14035
1.13768
1.13527
1.13313
1.13122
1.12953
1.12805
1.12676
1.12565
1.1247
1.12391
1.12327
1.12275
1.12234
1.12203
1.1218
1.12164
1.12152
1.12144
1.12139
1.12136
1.12134
1.12132
1.12132
1.12131
1.12131
1.12131
1.12131
1.12131
1.12131
1.12131
1.12131
1.12131
1.12131
1.12131
1.12131
1.12131
1.12131
1.12131
1.12131
1.12131
1.12131
1.12131
1.12131
1.12131
1.12131
1.12131
1.12131
1.12131
1.12131
1.12131
1.12131
1.12131
1.12131
1.12131
1.12131
1.12131
1.12131
1.12131
1.12131
1.12131
1.12131
1.12131
1.12131
1.12131
1.12131
1.12131
1.12131
1.12131
1.12131
1.12131
1.12131
1.12131
1.12131
1.12131
1.12131
1.12131
1.12131
1.12131
1.12131
1.12131
1.12131
1.12131
1.12131
1.12131
1.12131
1.12133
1.12215
0
1
1.0311
1.01711
0.987294
0.955434
0.926359
0.901393
0.880496
0.863154
0.848764
0.836775
0.826726
0.818249
0.811054
0.804912
0.799643
0.795105
0.791189
0.78781
0.784902
0.782419
0.78032
0.778572
0.777144
0.776001
0.775109
0.774431
0.773929
0.773568
0.773316
0.773145
0.773033
0.772961
0.772916
0.772889
0.772873
0.772864
0.772859
0.772856
0.772854
0.772854
0.772853
0.772853
0.772853
0.772853
0.772853
0.772853
0.772853
0.772853
0.772853
0.772853
0.772853
0.772853
0.772853
0.772853
0.772853
0.772853
0.772853
0.772853
0.772853
0.772853
0.772853
0.772853
0.772853
0.772853
0.772853
0.772853
0.772853
0.772853
0.772853
0.772853
0.772853
0.772853
0.772853
0.772853
0.772853
0.772853
0.772853
0.772853
0.772853
0.772853
0.772853
0.772853
0.772853
0.772853
0.772853
0.772853
0.772853
0.772853
0.772853
0.772853
0.772853
0.772853
0.772853
0.772853
0.772853
0.772853
0.772855
0.772855
0.772887
0.773728
0
1
0.806579
0.640866
0.525903
0.45319
0.408664
0.381031
0.363033
0.350521
0.341257
0.334045
0.328228
0.323425
0.319397
0.31598
0.313059
0.310548
0.308382
0.30651
0.304897
0.303517
0.302347
0.30137
0.300569
0.299928
0.299425
0.299043
0.29876
0.298556
0.298413
0.298316
0.298252
0.298211
0.298185
0.29817
0.298161
0.298156
0.298153
0.298151
0.29815
0.29815
0.29815
0.298149
0.298149
0.298149
0.298149
0.298149
0.298149
0.298149
0.298149
0.298149
0.298149
0.298149
0.298149
0.298149
0.298149
0.298149
0.298149
0.298149
0.298149
0.298149
0.298149
0.298149
0.298149
0.298149
0.298149
0.298149
0.298149
0.298149
0.298149
0.298149
0.298149
0.298149
0.298149
0.298149
0.298149
0.298149
0.298149
0.298149
0.298149
0.298149
0.298149
0.298149
0.298149
0.298149
0.298149
0.298149
0.298149
0.298149
0.298149
0.298149
0.298149
0.298149
0.298149
0.298149
0.298149
0.298149
0.298151
0.298151
0.298157
0.298978
0
0
0
0
0
0
0
0
0
0
0
0
0
0
0
0
0
0
0
0
0
0
0
0
0
0
0
0
0
0
0
0
0
0
0
0
0
0
0
0
0
0
0
0
0
0
0
0
0
0
0
0
0
0
0
0
0
0
0
0
0
0
0
0
0
0
0
0
0
0
0
0
0
0
0
0
0
0
0
0
0
0
0
0
0
0
0
0
0
0
0
0
0
0
0
0
0
0
0
0
0
0
0
