# vtk DataFile Version 2.0
FlowField
ASCII
DATASET STRUCTURED_GRID
DIMENSIONS 102 12 1 
POINTS 1224 double
0 0 0
0.3 0 0
0.6 0 0
0.9 0 0
1.2 0 0
1.5 0 0
1.8 0 0
2.1 0 0
2.4 0 0
2.7 0 0
3 0 0
3.3 0 0
3.6 0 0
3.9 0 0
4.2 0 0
4.5 0 0
4.8 0 0
5.1 0 0
5.4 0 0
5.7 0 0
6 0 0
6.3 0 0
6.6 0 0
6.9 0 0
7.2 0 0
7.5 0 0
7.8 0 0
8.1 0 0
8.4 0 0
8.7 0 0
9 0 0
9.3 0 0
9.6 0 0
9.9 0 0
10.2 0 0
10.5 0 0
10.8 0 0
11.1 0 0
11.4 0 0
11.7 0 0
12 0 0
12.3 0 0
12.6 0 0
12.9 0 0
13.2 0 0
13.5 0 0
13.8 0 0
14.1 0 0
14.4 0 0
14.7 0 0
15 0 0
15.3 0 0
15.6 0 0
15.9 0 0
16.2 0 0
16.5 0 0
16.8 0 0
17.1 0 0
17.4 0 0
17.7 0 0
18 0 0
18.3 0 0
18.6 0 0
18.9 0 0
19.2 0 0
19.5 0 0
19.8 0 0
20.1 0 0
20.4 0 0
20.7 0 0
21 0 0
21.3 0 0
21.6 0 0
21.9 0 0
22.2 0 0
22.5 0 0
22.8 0 0
23.1 0 0
23.4 0 0
23.7 0 0
24 0 0
24.3 0 0
24.6 0 0
24.9 0 0
25.2 0 0
25.5 0 0
25.8 0 0
26.1 0 0
26.4 0 0
26.7 0 0
27 0 0
27.3 0 0
27.6 0 0
27.9 0 0
28.2 0 0
28.5 0 0
28.8 0 0
29.1 0 0
29.4 0 0
29.7 0 0
30 0 0
30.3 0 0
0 0.1 0
0.3 0.1 0
0.6 0.1 0
0.9 0.1 0
1.2 0.1 0
1.5 0.1 0
1.8 0.1 0
2.1 0.1 0
2.4 0.1 0
2.7 0.1 0
3 0.1 0
3.3 0.1 0
3.6 0.1 0
3.9 0.1 0
4.2 0.1 0
4.5 0.1 0
4.8 0.1 0
5.1 0.1 0
5.4 0.1 0
5.7 0.1 0
6 0.1 0
6.3 0.1 0
6.6 0.1 0
6.9 0.1 0
7.2 0.1 0
7.5 0.1 0
7.8 0.1 0
8.1 0.1 0
8.4 0.1 0
8.7 0.1 0
9 0.1 0
9.3 0.1 0
9.6 0.1 0
9.9 0.1 0
10.2 0.1 0
10.5 0.1 0
10.8 0.1 0
11.1 0.1 0
11.4 0.1 0
11.7 0.1 0
12 0.1 0
12.3 0.1 0
12.6 0.1 0
12.9 0.1 0
13.2 0.1 0
13.5 0.1 0
13.8 0.1 0
14.1 0.1 0
14.4 0.1 0
14.7 0.1 0
15 0.1 0
15.3 0.1 0
15.6 0.1 0
15.9 0.1 0
16.2 0.1 0
16.5 0.1 0
16.8 0.1 0
17.1 0.1 0
17.4 0.1 0
17.7 0.1 0
18 0.1 0
18.3 0.1 0
18.6 0.1 0
18.9 0.1 0
19.2 0.1 0
19.5 0.1 0
19.8 0.1 0
20.1 0.1 0
20.4 0.1 0
20.7 0.1 0
21 0.1 0
21.3 0.1 0
21.6 0.1 0
21.9 0.1 0
22.2 0.1 0
22.5 0.1 0
22.8 0.1 0
23.1 0.1 0
23.4 0.1 0
23.7 0.1 0
24 0.1 0
24.3 0.1 0
24.6 0.1 0
24.9 0.1 0
25.2 0.1 0
25.5 0.1 0
25.8 0.1 0
26.1 0.1 0
26.4 0.1 0
26.7 0.1 0
27 0.1 0
27.3 0.1 0
27.6 0.1 0
27.9 0.1 0
28.2 0.1 0
28.5 0.1 0
28.8 0.1 0
29.1 0.1 0
29.4 0.1 0
29.7 0.1 0
30 0.1 0
30.3 0.1 0
0 0.2 0
0.3 0.2 0
0.6 0.2 0
0.9 0.2 0
1.2 0.2 0
1.5 0.2 0
1.8 0.2 0
2.1 0.2 0
2.4 0.2 0
2.7 0.2 0
3 0.2 0
3.3 0.2 0
3.6 0.2 0
3.9 0.2 0
4.2 0.2 0
4.5 0.2 0
4.8 0.2 0
5.1 0.2 0
5.4 0.2 0
5.7 0.2 0
6 0.2 0
6.3 0.2 0
6.6 0.2 0
6.9 0.2 0
7.2 0.2 0
7.5 0.2 0
7.8 0.2 0
8.1 0.2 0
8.4 0.2 0
8.7 0.2 0
9 0.2 0
9.3 0.2 0
9.6 0.2 0
9.9 0.2 0
10.2 0.2 0
10.5 0.2 0
10.8 0.2 0
11.1 0.2 0
11.4 0.2 0
11.7 0.2 0
12 0.2 0
12.3 0.2 0
12.6 0.2 0
12.9 0.2 0
13.2 0.2 0
13.5 0.2 0
13.8 0.2 0
14.1 0.2 0
14.4 0.2 0
14.7 0.2 0
15 0.2 0
15.3 0.2 0
15.6 0.2 0
15.9 0.2 0
16.2 0.2 0
16.5 0.2 0
16.8 0.2 0
17.1 0.2 0
17.4 0.2 0
17.7 0.2 0
18 0.2 0
18.3 0.2 0
18.6 0.2 0
18.9 0.2 0
19.2 0.2 0
19.5 0.2 0
19.8 0.2 0
20.1 0.2 0
20.4 0.2 0
20.7 0.2 0
21 0.2 0
21.3 0.2 0
21.6 0.2 0
21.9 0.2 0
22.2 0.2 0
22.5 0.2 0
22.8 0.2 0
23.1 0.2 0
23.4 0.2 0
23.7 0.2 0
24 0.2 0
24.3 0.2 0
24.6 0.2 0
24.9 0.2 0
25.2 0.2 0
25.5 0.2 0
25.8 0.2 0
26.1 0.2 0
26.4 0.2 0
26.7 0.2 0
27 0.2 0
27.3 0.2 0
27.6 0.2 0
27.9 0.2 0
28.2 0.2 0
28.5 0.2 0
28.8 0.2 0
29.1 0.2 0
29.4 0.2 0
29.7 0.2 0
30 0.2 0
30.3 0.2 0
0 0.3 0
0.3 0.3 0
0.6 0.3 0
0.9 0.3 0
1.2 0.3 0
1.5 0.3 0
1.8 0.3 0
2.1 0.3 0
2.4 0.3 0
2.7 0.3 0
3 0.3 0
3.3 0.3 0
3.6 0.3 0
3.9 0.3 0
4.2 0.3 0
4.5 0.3 0
4.8 0.3 0
5.1 0.3 0
5.4 0.3 0
5.7 0.3 0
6 0.3 0
6.3 0.3 0
6.6 0.3 0
6.9 0.3 0
7.2 0.3 0
7.5 0.3 0
7.8 0.3 0
8.1 0.3 0
8.4 0.3 0
8.7 0.3 0
9 0.3 0
9.3 0.3 0
9.6 0.3 0
9.9 0.3 0
10.2 0.3 0
10.5 0.3 0
10.8 0.3 0
11.1 0.3 0
11.4 0.3 0
11.7 0.3 0
12 0.3 0
12.3 0.3 0
12.6 0.3 0
12.9 0.3 0
13.2 0.3 0
13.5 0.3 0
13.8 0.3 0
14.1 0.3 0
14.4 0.3 0
14.7 0.3 0
15 0.3 0
15.3 0.3 0
15.6 0.3 0
15.9 0.3 0
16.2 0.3 0
16.5 0.3 0
16.8 0.3 0
17.1 0.3 0
17.4 0.3 0
17.7 0.3 0
18 0.3 0
18.3 0.3 0
18.6 0.3 0
18.9 0.3 0
19.2 0.3 0
19.5 0.3 0
19.8 0.3 0
20.1 0.3 0
20.4 0.3 0
20.7 0.3 0
21 0.3 0
21.3 0.3 0
21.6 0.3 0
21.9 0.3 0
22.2 0.3 0
22.5 0.3 0
22.8 0.3 0
23.1 0.3 0
23.4 0.3 0
23.7 0.3 0
24 0.3 0
24.3 0.3 0
24.6 0.3 0
24.9 0.3 0
25.2 0.3 0
25.5 0.3 0
25.8 0.3 0
26.1 0.3 0
26.4 0.3 0
26.7 0.3 0
27 0.3 0
27.3 0.3 0
27.6 0.3 0
27.9 0.3 0
28.2 0.3 0
28.5 0.3 0
28.8 0.3 0
29.1 0.3 0
29.4 0.3 0
29.7 0.3 0
30 0.3 0
30.3 0.3 0
0 0.4 0
0.3 0.4 0
0.6 0.4 0
0.9 0.4 0
1.2 0.4 0
1.5 0.4 0
1.8 0.4 0
2.1 0.4 0
2.4 0.4 0
2.7 0.4 0
3 0.4 0
3.3 0.4 0
3.6 0.4 0
3.9 0.4 0
4.2 0.4 0
4.5 0.4 0
4.8 0.4 0
5.1 0.4 0
5.4 0.4 0
5.7 0.4 0
6 0.4 0
6.3 0.4 0
6.6 0.4 0
6.9 0.4 0
7.2 0.4 0
7.5 0.4 0
7.8 0.4 0
8.1 0.4 0
8.4 0.4 0
8.7 0.4 0
9 0.4 0
9.3 0.4 0
9.6 0.4 0
9.9 0.4 0
10.2 0.4 0
10.5 0.4 0
10.8 0.4 0
11.1 0.4 0
11.4 0.4 0
11.7 0.4 0
12 0.4 0
12.3 0.4 0
12.6 0.4 0
12.9 0.4 0
13.2 0.4 0
13.5 0.4 0
13.8 0.4 0
14.1 0.4 0
14.4 0.4 0
14.7 0.4 0
15 0.4 0
15.3 0.4 0
15.6 0.4 0
15.9 0.4 0
16.2 0.4 0
16.5 0.4 0
16.8 0.4 0
17.1 0.4 0
17.4 0.4 0
17.7 0.4 0
18 0.4 0
18.3 0.4 0
18.6 0.4 0
18.9 0.4 0
19.2 0.4 0
19.5 0.4 0
19.8 0.4 0
20.1 0.4 0
20.4 0.4 0
20.7 0.4 0
21 0.4 0
21.3 0.4 0
21.6 0.4 0
21.9 0.4 0
22.2 0.4 0
22.5 0.4 0
22.8 0.4 0
23.1 0.4 0
23.4 0.4 0
23.7 0.4 0
24 0.4 0
24.3 0.4 0
24.6 0.4 0
24.9 0.4 0
25.2 0.4 0
25.5 0.4 0
25.8 0.4 0
26.1 0.4 0
26.4 0.4 0
26.7 0.4 0
27 0.4 0
27.3 0.4 0
27.6 0.4 0
27.9 0.4 0
28.2 0.4 0
28.5 0.4 0
28.8 0.4 0
29.1 0.4 0
29.4 0.4 0
29.7 0.4 0
30 0.4 0
30.3 0.4 0
0 0.5 0
0.3 0.5 0
0.6 0.5 0
0.9 0.5 0
1.2 0.5 0
1.5 0.5 0
1.8 0.5 0
2.1 0.5 0
2.4 0.5 0
2.7 0.5 0
3 0.5 0
3.3 0.5 0
3.6 0.5 0
3.9 0.5 0
4.2 0.5 0
4.5 0.5 0
4.8 0.5 0
5.1 0.5 0
5.4 0.5 0
5.7 0.5 0
6 0.5 0
6.3 0.5 0
6.6 0.5 0
6.9 0.5 0
7.2 0.5 0
7.5 0.5 0
7.8 0.5 0
8.1 0.5 0
8.4 0.5 0
8.7 0.5 0
9 0.5 0
9.3 0.5 0
9.6 0.5 0
9.9 0.5 0
10.2 0.5 0
10.5 0.5 0
10.8 0.5 0
11.1 0.5 0
11.4 0.5 0
11.7 0.5 0
12 0.5 0
12.3 0.5 0
12.6 0.5 0
12.9 0.5 0
13.2 0.5 0
13.5 0.5 0
13.8 0.5 0
14.1 0.5 0
14.4 0.5 0
14.7 0.5 0
15 0.5 0
15.3 0.5 0
15.6 0.5 0
15.9 0.5 0
16.2 0.5 0
16.5 0.5 0
16.8 0.5 0
17.1 0.5 0
17.4 0.5 0
17.7 0.5 0
18 0.5 0
18.3 0.5 0
18.6 0.5 0
18.9 0.5 0
19.2 0.5 0
19.5 0.5 0
19.8 0.5 0
20.1 0.5 0
20.4 0.5 0
20.7 0.5 0
21 0.5 0
21.3 0.5 0
21.6 0.5 0
21.9 0.5 0
22.2 0.5 0
22.5 0.5 0
22.8 0.5 0
23.1 0.5 0
23.4 0.5 0
23.7 0.5 0
24 0.5 0
24.3 0.5 0
24.6 0.5 0
24.9 0.5 0
25.2 0.5 0
25.5 0.5 0
25.8 0.5 0
26.1 0.5 0
26.4 0.5 0
26.7 0.5 0
27 0.5 0
27.3 0.5 0
27.6 0.5 0
27.9 0.5 0
28.2 0.5 0
28.5 0.5 0
28.8 0.5 0
29.1 0.5 0
29.4 0.5 0
29.7 0.5 0
30 0.5 0
30.3 0.5 0
0 0.6 0
0.3 0.6 0
0.6 0.6 0
0.9 0.6 0
1.2 0.6 0
1.5 0.6 0
1.8 0.6 0
2.1 0.6 0
2.4 0.6 0
2.7 0.6 0
3 0.6 0
3.3 0.6 0
3.6 0.6 0
3.9 0.6 0
4.2 0.6 0
4.5 0.6 0
4.8 0.6 0
5.1 0.6 0
5.4 0.6 0
5.7 0.6 0
6 0.6 0
6.3 0.6 0
6.6 0.6 0
6.9 0.6 0
7.2 0.6 0
7.5 0.6 0
7.8 0.6 0
8.1 0.6 0
8.4 0.6 0
8.7 0.6 0
9 0.6 0
9.3 0.6 0
9.6 0.6 0
9.9 0.6 0
10.2 0.6 0
10.5 0.6 0
10.8 0.6 0
11.1 0.6 0
11.4 0.6 0
11.7 0.6 0
12 0.6 0
12.3 0.6 0
12.6 0.6 0
12.9 0.6 0
13.2 0.6 0
13.5 0.6 0
13.8 0.6 0
14.1 0.6 0
14.4 0.6 0
14.7 0.6 0
15 0.6 0
15.3 0.6 0
15.6 0.6 0
15.9 0.6 0
16.2 0.6 0
16.5 0.6 0
16.8 0.6 0
17.1 0.6 0
17.4 0.6 0
17.7 0.6 0
18 0.6 0
18.3 0.6 0
18.6 0.6 0
18.9 0.6 0
19.2 0.6 0
19.5 0.6 0
19.8 0.6 0
20.1 0.6 0
20.4 0.6 0
20.7 0.6 0
21 0.6 0
21.3 0.6 0
21.6 0.6 0
21.9 0.6 0
22.2 0.6 0
22.5 0.6 0
22.8 0.6 0
23.1 0.6 0
23.4 0.6 0
23.7 0.6 0
24 0.6 0
24.3 0.6 0
24.6 0.6 0
24.9 0.6 0
25.2 0.6 0
25.5 0.6 0
25.8 0.6 0
26.1 0.6 0
26.4 0.6 0
26.7 0.6 0
27 0.6 0
27.3 0.6 0
27.6 0.6 0
27.9 0.6 0
28.2 0.6 0
28.5 0.6 0
28.8 0.6 0
29.1 0.6 0
29.4 0.6 0
29.7 0.6 0
30 0.6 0
30.3 0.6 0
0 0.7 0
0.3 0.7 0
0.6 0.7 0
0.9 0.7 0
1.2 0.7 0
1.5 0.7 0
1.8 0.7 0
2.1 0.7 0
2.4 0.7 0
2.7 0.7 0
3 0.7 0
3.3 0.7 0
3.6 0.7 0
3.9 0.7 0
4.2 0.7 0
4.5 0.7 0
4.8 0.7 0
5.1 0.7 0
5.4 0.7 0
5.7 0.7 0
6 0.7 0
6.3 0.7 0
6.6 0.7 0
6.9 0.7 0
7.2 0.7 0
7.5 0.7 0
7.8 0.7 0
8.1 0.7 0
8.4 0.7 0
8.7 0.7 0
9 0.7 0
9.3 0.7 0
9.6 0.7 0
9.9 0.7 0
10.2 0.7 0
10.5 0.7 0
10.8 0.7 0
11.1 0.7 0
11.4 0.7 0
11.7 0.7 0
12 0.7 0
12.3 0.7 0
12.6 0.7 0
12.9 0.7 0
13.2 0.7 0
13.5 0.7 0
13.8 0.7 0
14.1 0.7 0
14.4 0.7 0
14.7 0.7 0
15 0.7 0
15.3 0.7 0
15.6 0.7 0
15.9 0.7 0
16.2 0.7 0
16.5 0.7 0
16.8 0.7 0
17.1 0.7 0
17.4 0.7 0
17.7 0.7 0
18 0.7 0
18.3 0.7 0
18.6 0.7 0
18.9 0.7 0
19.2 0.7 0
19.5 0.7 0
19.8 0.7 0
20.1 0.7 0
20.4 0.7 0
20.7 0.7 0
21 0.7 0
21.3 0.7 0
21.6 0.7 0
21.9 0.7 0
22.2 0.7 0
22.5 0.7 0
22.8 0.7 0
23.1 0.7 0
23.4 0.7 0
23.7 0.7 0
24 0.7 0
24.3 0.7 0
24.6 0.7 0
24.9 0.7 0
25.2 0.7 0
25.5 0.7 0
25.8 0.7 0
26.1 0.7 0
26.4 0.7 0
26.7 0.7 0
27 0.7 0
27.3 0.7 0
27.6 0.7 0
27.9 0.7 0
28.2 0.7 0
28.5 0.7 0
28.8 0.7 0
29.1 0.7 0
29.4 0.7 0
29.7 0.7 0
30 0.7 0
30.3 0.7 0
0 0.8 0
0.3 0.8 0
0.6 0.8 0
0.9 0.8 0
1.2 0.8 0
1.5 0.8 0
1.8 0.8 0
2.1 0.8 0
2.4 0.8 0
2.7 0.8 0
3 0.8 0
3.3 0.8 0
3.6 0.8 0
3.9 0.8 0
4.2 0.8 0
4.5 0.8 0
4.8 0.8 0
5.1 0.8 0
5.4 0.8 0
5.7 0.8 0
6 0.8 0
6.3 0.8 0
6.6 0.8 0
6.9 0.8 0
7.2 0.8 0
7.5 0.8 0
7.8 0.8 0
8.1 0.8 0
8.4 0.8 0
8.7 0.8 0
9 0.8 0
9.3 0.8 0
9.6 0.8 0
9.9 0.8 0
10.2 0.8 0
10.5 0.8 0
10.8 0.8 0
11.1 0.8 0
11.4 0.8 0
11.7 0.8 0
12 0.8 0
12.3 0.8 0
12.6 0.8 0
12.9 0.8 0
13.2 0.8 0
13.5 0.8 0
13.8 0.8 0
14.1 0.8 0
14.4 0.8 0
14.7 0.8 0
15 0.8 0
15.3 0.8 0
15.6 0.8 0
15.9 0.8 0
16.2 0.8 0
16.5 0.8 0
16.8 0.8 0
17.1 0.8 0
17.4 0.8 0
17.7 0.8 0
18 0.8 0
18.3 0.8 0
18.6 0.8 0
18.9 0.8 0
19.2 0.8 0
19.5 0.8 0
19.8 0.8 0
20.1 0.8 0
20.4 0.8 0
20.7 0.8 0
21 0.8 0
21.3 0.8 0
21.6 0.8 0
21.9 0.8 0
22.2 0.8 0
22.5 0.8 0
22.8 0.8 0
23.1 0.8 0
23.4 0.8 0
23.7 0.8 0
24 0.8 0
24.3 0.8 0
24.6 0.8 0
24.9 0.8 0
25.2 0.8 0
25.5 0.8 0
25.8 0.8 0
26.1 0.8 0
26.4 0.8 0
26.7 0.8 0
27 0.8 0
27.3 0.8 0
27.6 0.8 0
27.9 0.8 0
28.2 0.8 0
28.5 0.8 0
28.8 0.8 0
29.1 0.8 0
29.4 0.8 0
29.7 0.8 0
30 0.8 0
30.3 0.8 0
0 0.9 0
0.3 0.9 0
0.6 0.9 0
0.9 0.9 0
1.2 0.9 0
1.5 0.9 0
1.8 0.9 0
2.1 0.9 0
2.4 0.9 0
2.7 0.9 0
3 0.9 0
3.3 0.9 0
3.6 0.9 0
3.9 0.9 0
4.2 0.9 0
4.5 0.9 0
4.8 0.9 0
5.1 0.9 0
5.4 0.9 0
5.7 0.9 0
6 0.9 0
6.3 0.9 0
6.6 0.9 0
6.9 0.9 0
7.2 0.9 0
7.5 0.9 0
7.8 0.9 0
8.1 0.9 0
8.4 0.9 0
8.7 0.9 0
9 0.9 0
9.3 0.9 0
9.6 0.9 0
9.9 0.9 0
10.2 0.9 0
10.5 0.9 0
10.8 0.9 0
11.1 0.9 0
11.4 0.9 0
11.7 0.9 0
12 0.9 0
12.3 0.9 0
12.6 0.9 0
12.9 0.9 0
13.2 0.9 0
13.5 0.9 0
13.8 0.9 0
14.1 0.9 0
14.4 0.9 0
14.7 0.9 0
15 0.9 0
15.3 0.9 0
15.6 0.9 0
15.9 0.9 0
16.2 0.9 0
16.5 0.9 0
16.8 0.9 0
17.1 0.9 0
17.4 0.9 0
17.7 0.9 0
18 0.9 0
18.3 0.9 0
18.6 0.9 0
18.9 0.9 0
19.2 0.9 0
19.5 0.9 0
19.8 0.9 0
20.1 0.9 0
20.4 0.9 0
20.7 0.9 0
21 0.9 0
21.3 0.9 0
21.6 0.9 0
21.9 0.9 0
22.2 0.9 0
22.5 0.9 0
22.8 0.9 0
23.1 0.9 0
23.4 0.9 0
23.7 0.9 0
24 0.9 0
24.3 0.9 0
24.6 0.9 0
24.9 0.9 0
25.2 0.9 0
25.5 0.9 0
25.8 0.9 0
26.1 0.9 0
26.4 0.9 0
26.7 0.9 0
27 0.9 0
27.3 0.9 0
27.6 0.9 0
27.9 0.9 0
28.2 0.9 0
28.5 0.9 0
28.8 0.9 0
29.1 0.9 0
29.4 0.9 0
29.7 0.9 0
30 0.9 0
30.3 0.9 0
0 1 0
0.3 1 0
0.6 1 0
0.9 1 0
1.2 1 0
1.5 1 0
1.8 1 0
2.1 1 0
2.4 1 0
2.7 1 0
3 1 0
3.3 1 0
3.6 1 0
3.9 1 0
4.2 1 0
4.5 1 0
4.8 1 0
5.1 1 0
5.4 1 0
5.7 1 0
6 1 0
6.3 1 0
6.6 1 0
6.9 1 0
7.2 1 0
7.5 1 0
7.8 1 0
8.1 1 0
8.4 1 0
8.7 1 0
9 1 0
9.3 1 0
9.6 1 0
9.9 1 0
10.2 1 0
10.5 1 0
10.8 1 0
11.1 1 0
11.4 1 0
11.7 1 0
12 1 0
12.3 1 0
12.6 1 0
12.9 1 0
13.2 1 0
13.5 1 0
13.8 1 0
14.1 1 0
14.4 1 0
14.7 1 0
15 1 0
15.3 1 0
15.6 1 0
15.9 1 0
16.2 1 0
16.5 1 0
16.8 1 0
17.1 1 0
17.4 1 0
17.7 1 0
18 1 0
18.3 1 0
18.6 1 0
18.9 1 0
19.2 1 0
19.5 1 0
19.8 1 0
20.1 1 0
20.4 1 0
20.7 1 0
21 1 0
21.3 1 0
21.6 1 0
21.9 1 0
22.2 1 0
22.5 1 0
22.8 1 0
23.1 1 0
23.4 1 0
23.7 1 0
24 1 0
24.3 1 0
24.6 1 0
24.9 1 0
25.2 1 0
25.5 1 0
25.8 1 0
26.1 1 0
26.4 1 0
26.7 1 0
27 1 0
27.3 1 0
27.6 1 0
27.9 1 0
28.2 1 0
28.5 1 0
28.8 1 0
29.1 1 0
29.4 1 0
29.7 1 0
30 1 0
30.3 1 0
0 1.1 0
0.3 1.1 0
0.6 1.1 0
0.9 1.1 0
1.2 1.1 0
1.5 1.1 0
1.8 1.1 0
2.1 1.1 0
2.4 1.1 0
2.7 1.1 0
3 1.1 0
3.3 1.1 0
3.6 1.1 0
3.9 1.1 0
4.2 1.1 0
4.5 1.1 0
4.8 1.1 0
5.1 1.1 0
5.4 1.1 0
5.7 1.1 0
6 1.1 0
6.3 1.1 0
6.6 1.1 0
6.9 1.1 0
7.2 1.1 0
7.5 1.1 0
7.8 1.1 0
8.1 1.1 0
8.4 1.1 0
8.7 1.1 0
9 1.1 0
9.3 1.1 0
9.6 1.1 0
9.9 1.1 0
10.2 1.1 0
10.5 1.1 0
10.8 1.1 0
11.1 1.1 0
11.4 1.1 0
11.7 1.1 0
12 1.1 0
12.3 1.1 0
12.6 1.1 0
12.9 1.1 0
13.2 1.1 0
13.5 1.1 0
13.8 1.1 0
14.1 1.1 0
14.4 1.1 0
14.7 1.1 0
15 1.1 0
15.3 1.1 0
15.6 1.1 0
15.9 1.1 0
16.2 1.1 0
16.5 1.1 0
16.8 1.1 0
17.1 1.1 0
17.4 1.1 0
17.7 1.1 0
18 1.1 0
18.3 1.1 0
18.6 1.1 0
18.9 1.1 0
19.2 1.1 0
19.5 1.1 0
19.8 1.1 0
20.1 1.1 0
20.4 1.1 0
20.7 1.1 0
21 1.1 0
21.3 1.1 0
21.6 1.1 0
21.9 1.1 0
22.2 1.1 0
22.5 1.1 0
22.8 1.1 0
23.1 1.1 0
23.4 1.1 0
23.7 1.1 0
24 1.1 0
24.3 1.1 0
24.6 1.1 0
24.9 1.1 0
25.2 1.1 0
25.5 1.1 0
25.8 1.1 0
26.1 1.1 0
26.4 1.1 0
26.7 1.1 0
27 1.1 0
27.3 1.1 0
27.6 1.1 0
27.9 1.1 0
28.2 1.1 0
28.5 1.1 0
28.8 1.1 0
29.1 1.1 0
29.4 1.1 0
29.7 1.1 0
30 1.1 0
30.3 1.1 0

POINT_DATA 1224

VECTORS velocity double
LOOKUP_TABLE default
-1 0 0
-0.910559 0 0
-0.863308 0 0
-0.848433 0 0
-0.844943 0 0
-0.844274 0 0
-0.844163 0 0
-0.844146 0 0
-0.844144 0 0
-0.844144 0 0
-0.844144 0 0
-0.844144 0 0
-0.844145 0 0
-0.844145 0 0
-0.844145 0 0
-0.844145 0 0
-0.844145 0 0
-0.844145 0 0
-0.844146 0 0
-0.844146 0 0
-0.844146 0 0
-0.844146 0 0
-0.844146 0 0
-0.844146 0 0
-0.844146 0 0
-0.844146 0 0
-0.844146 0 0
-0.844146 0 0
-0.844146 0 0
-0.844146 0 0
-0.844146 0 0
-0.844146 0 0
-0.844146 0 0
-0.844146 0 0
-0.844146 0 0
-0.844146 0 0
-0.844146 0 0
-0.844145 0 0
-0.844145 0 0
-0.844145 0 0
-0.844145 0 0
-0.844145 0 0
-0.844145 0 0
-0.844144 0 0
-0.844144 0 0
-0.844144 0 0
-0.844144 0 0
-0.844143 0 0
-0.844143 0 0
-0.844143 0 0
-0.844143 0 0
-0.844142 0 0
-0.844142 0 0
-0.844142 0 0
-0.844141 0 0
-0.844141 0 0
-0.84414 0 0
-0.84414 0 0
-0.84414 0 0
-0.844139 0 0
-0.844139 0 0
-0.844138 0 0
-0.844138 0 0
-0.844137 0 0
-0.844137 0 0
-0.844136 0 0
-0.844136 0 0
-0.844135 0 0
-0.844135 0 0
-0.844134 0 0
-0.844134 0 0
-0.844133 0 0
-0.844132 0 0
-0.844132 0 0
-0.844131 0 0
-0.844131 0 0
-0.84413 0 0
-0.844129 0 0
-0.844129 0 0
-0.844128 0 0
-0.844128 0 0
-0.844127 0 0
-0.844126 0 0
-0.844126 0 0
-0.844125 0 0
-0.844124 0 0
-0.844124 0 0
-0.844123 0 0
-0.844122 0 0
-0.844122 0 0
-0.844121 0 0
-0.84412 0 0
-0.84412 0 0
-0.844119 0 0
-0.844118 0 0
-0.844119 0 0
-0.844123 0 0
-0.844155 0 0
-0.84425 0 0
-0.845877 0 0
-0.845877 0 0
-1 0 0
1 -0.0298138 0
0.910559 0.0298138 0
0.863308 0.0157502 0
0.848433 0.00495842 0
0.844943 0.001163 0
0.844274 0.000222963 0
0.844163 3.70778e-05 0
0.844146 5.54091e-06 0
0.844144 7.05708e-07 0
0.844144 9.10904e-09 0
0.844144 -8.56649e-08 0
0.844144 -9.71037e-08 0
0.844145 -9.86201e-08 0
0.844145 -9.92676e-08 0
0.844145 -9.99993e-08 0
0.844145 -1.00878e-07 0
0.844145 -1.01894e-07 0
0.844145 -1.03042e-07 0
0.844146 -1.04318e-07 0
0.844146 -1.0572e-07 0
0.844146 -1.07247e-07 0
0.844146 -1.08896e-07 0
0.844146 -1.10666e-07 0
0.844146 -1.12556e-07 0
0.844146 -1.14564e-07 0
0.844146 -1.16687e-07 0
0.844146 -1.1892e-07 0
0.844146 -1.2126e-07 0
0.844146 -1.23706e-07 0
0.844146 -1.26254e-07 0
0.844146 -1.28903e-07 0
0.844146 -1.3165e-07 0
0.844146 -1.34492e-07 0
0.844146 -1.37426e-07 0
0.844146 -1.40449e-07 0
0.844146 -1.43557e-07 0
0.844146 -1.46751e-07 0
0.844145 -1.50031e-07 0
0.844145 -1.5339e-07 0
0.844145 -1.56819e-07 0
0.844145 -1.6031e-07 0
0.844145 -1.63866e-07 0
0.844145 -1.67483e-07 0
0.844144 -1.7116e-07 0
0.844144 -1.74891e-07 0
0.844144 -1.78683e-07 0
0.844144 -1.82526e-07 0
0.844143 -1.86411e-07 0
0.844143 -1.90321e-07 0
0.844143 -1.94361e-07 0
0.844143 -1.98447e-07 0
0.844142 -2.02602e-07 0
0.844142 -2.06782e-07 0
0.844142 -2.10922e-07 0
0.844141 -2.15033e-07 0
0.844141 -2.1916e-07 0
0.84414 -2.233e-07 0
0.84414 -2.27454e-07 0
0.84414 -2.31612e-07 0
0.844139 -2.35759e-07 0
0.844139 -2.39891e-07 0
0.844138 -2.44013e-07 0
0.844138 -2.48123e-07 0
0.844137 -2.52218e-07 0
0.844137 -2.56295e-07 0
0.844136 -2.6035e-07 0
0.844136 -2.64379e-07 0
0.844135 -2.68379e-07 0
0.844135 -2.72345e-07 0
0.844134 -2.76274e-07 0
0.844134 -2.80162e-07 0
0.844133 -2.84005e-07 0
0.844132 -2.87799e-07 0
0.844132 -2.91541e-07 0
0.844131 -2.95227e-07 0
0.844131 -2.98852e-07 0
0.84413 -3.02415e-07 0
0.844129 -3.05909e-07 0
0.844129 -3.09333e-07 0
0.844128 -3.12685e-07 0
0.844128 -3.15958e-07 0
0.844127 -3.19147e-07 0
0.844126 -3.22251e-07 0
0.844126 -3.25266e-07 0
0.844125 -3.2819e-07 0
0.844124 -3.31018e-07 0
0.844124 -3.33748e-07 0
0.844123 -3.36377e-07 0
0.844122 -3.38905e-07 0
0.844122 -3.41338e-07 0
0.844121 -3.43728e-07 0
0.84412 -3.46343e-07 0
0.84412 -3.50559e-07 0
0.844119 -3.63393e-07 0
0.844118 -4.20651e-07 0
0.844119 -7.08121e-07 0
0.844123 -2.10239e-06 0
0.844155 -1.11508e-05 0
0.84425 -3.22281e-05 0
0.845877 -0.000542858 0
0.845877 -0.00130197 0
1 -0.00130197 0
1 -0.02138 0
1.0253 0.02138 0
1.03126 0.0137648 0
1.03158 0.00485002 0
1.03129 0.00126205 0
1.03115 0.000269698 0
1.03111 5.0307e-05 0
1.0311 8.49455e-06 0
1.03109 1.28314e-06 0
1.03109 1.21659e-07 0
1.03109 -5.60356e-08 0
1.03109 -8.20286e-08 0
1.03109 -8.59078e-08 0
1.03109 -8.69373e-08 0
1.03109 -8.77786e-08 0
1.03109 -8.87508e-08 0
1.03109 -8.98776e-08 0
1.03109 -9.11547e-08 0
1.03109 -9.25783e-08 0
1.03109 -9.41456e-08 0
1.03109 -9.58544e-08 0
1.03109 -9.77025e-08 0
1.03109 -9.96877e-08 0
1.03109 -1.01808e-07 0
1.03109 -1.0406e-07 0
1.03109 -1.06442e-07 0
1.03109 -1.0895e-07 0
1.03109 -1.11582e-07 0
1.03109 -1.14336e-07 0
1.03109 -1.17207e-07 0
1.03109 -1.20193e-07 0
1.03109 -1.2329e-07 0
1.03109 -1.26495e-07 0
1.03109 -1.29805e-07 0
1.03109 -1.33216e-07 0
1.03109 -1.36726e-07 0
1.03109 -1.4033e-07 0
1.03109 -1.44024e-07 0
1.03109 -1.47804e-07 0
1.03109 -1.51667e-07 0
1.03109 -1.5561e-07 0
1.03109 -1.59628e-07 0
1.03109 -1.63718e-07 0
1.03109 -1.67876e-07 0
1.03109 -1.72098e-07 0
1.03109 -1.76379e-07 0
1.03109 -1.80715e-07 0
1.03109 -1.85103e-07 0
1.03109 -1.89546e-07 0
1.03109 -1.9403e-07 0
1.03109 -1.98552e-07 0
1.03109 -2.03108e-07 0
1.03109 -2.07687e-07 0
1.03109 -2.12294e-07 0
1.03109 -2.16928e-07 0
1.03109 -2.21583e-07 0
1.03109 -2.26254e-07 0
1.03109 -2.30935e-07 0
1.03108 -2.35621e-07 0
1.03108 -2.40309e-07 0
1.03108 -2.44995e-07 0
1.03108 -2.49676e-07 0
1.03108 -2.54346e-07 0
1.03108 -2.59002e-07 0
1.03108 -2.63638e-07 0
1.03108 -2.68251e-07 0
1.03108 -2.72836e-07 0
1.03108 -2.77389e-07 0
1.03108 -2.81905e-07 0
1.03108 -2.86381e-07 0
1.03108 -2.90811e-07 0
1.03108 -2.95192e-07 0
1.03108 -2.9952e-07 0
1.03108 -3.03789e-07 0
1.03108 -3.07996e-07 0
1.03108 -3.12137e-07 0
1.03108 -3.16206e-07 0
1.03108 -3.20201e-07 0
1.03108 -3.24117e-07 0
1.03108 -3.27949e-07 0
1.03108 -3.31693e-07 0
1.03108 -3.35347e-07 0
1.03107 -3.38905e-07 0
1.03107 -3.42364e-07 0
1.03107 -3.45719e-07 0
1.03107 -3.48968e-07 0
1.03107 -3.52107e-07 0
1.03107 -3.55133e-07 0
1.03107 -3.58045e-07 0
1.03107 -3.60859e-07 0
1.03107 -3.63654e-07 0
1.03107 -3.66858e-07 0
1.03107 -3.72653e-07 0
1.03107 -3.92161e-07 0
1.03107 -4.82011e-07 0
1.03107 -9.31648e-07 0
1.03107 -3.1993e-06 0
1.03108 -1.52652e-05 0
1.03119 -6.86117e-05 0
1.03102 -0.000484341 0
1.03102 -0.00111633 0
1 -0.00111633 0
1 -0.0130374 0
1.02503 0.0130374 0
1.03733 0.00966363 0
1.04065 0.00374269 0
1.04126 0.00105851 0
1.04134 0.000244392 0
1.04134 4.89551e-05 0
1.04134 8.82587e-06 0
1.04134 1.43443e-06 0
1.04134 1.74773e-07 0
1.04134 -2.76043e-08 0
1.04134 -5.87585e-08 0
1.04134 -6.37701e-08 0
1.04134 -6.52099e-08 0
1.04134 -6.63657e-08 0
1.04134 -6.76626e-08 0
1.04134 -6.9139e-08 0
1.04134 -7.07913e-08 0
1.04134 -7.26148e-08 0
1.04134 -7.46061e-08 0
1.04134 -7.67623e-08 0
1.04134 -7.90807e-08 0
1.04134 -8.15585e-08 0
1.04134 -8.41931e-08 0
1.04134 -8.69811e-08 0
1.04134 -8.99193e-08 0
1.04134 -9.30039e-08 0
1.04134 -9.6232e-08 0
1.04134 -9.96001e-08 0
1.04134 -1.03104e-07 0
1.04134 -1.06741e-07 0
1.04134 -1.10505e-07 0
1.04134 -1.14394e-07 0
1.04134 -1.18403e-07 0
1.04134 -1.22528e-07 0
1.04134 -1.26766e-07 0
1.04134 -1.31111e-07 0
1.04134 -1.35559e-07 0
1.04134 -1.40104e-07 0
1.04134 -1.44744e-07 0
1.04134 -1.49474e-07 0
1.04134 -1.5429e-07 0
1.04134 -1.59187e-07 0
1.04134 -1.6416e-07 0
1.04134 -1.69204e-07 0
1.04134 -1.74313e-07 0
1.04134 -1.79484e-07 0
1.04134 -1.84712e-07 0
1.04133 -1.89998e-07 0
1.04133 -1.95323e-07 0
1.04133 -2.00691e-07 0
1.04133 -2.06091e-07 0
1.04133 -2.1152e-07 0
1.04133 -2.1698e-07 0
1.04133 -2.22469e-07 0
1.04133 -2.27978e-07 0
1.04133 -2.33499e-07 0
1.04133 -2.39028e-07 0
1.04133 -2.44559e-07 0
1.04133 -2.5009e-07 0
1.04133 -2.55614e-07 0
1.04133 -2.61128e-07 0
1.04133 -2.66624e-07 0
1.04133 -2.72098e-07 0
1.04133 -2.77545e-07 0
1.04133 -2.82959e-07 0
1.04133 -2.88336e-07 0
1.04133 -2.93671e-07 0
1.04133 -2.98958e-07 0
1.04133 -3.04192e-07 0
1.04133 -3.09368e-07 0
1.04133 -3.14482e-07 0
1.04133 -3.19528e-07 0
1.04133 -3.24501e-07 0
1.04133 -3.29396e-07 0
1.04133 -3.34207e-07 0
1.04132 -3.38931e-07 0
1.04132 -3.43563e-07 0
1.04132 -3.48096e-07 0
1.04132 -3.52527e-07 0
1.04132 -3.56851e-07 0
1.04132 -3.61062e-07 0
1.04132 -3.65158e-07 0
1.04132 -3.69133e-07 0
1.04132 -3.72982e-07 0
1.04132 -3.76702e-07 0
1.04132 -3.80288e-07 0
1.04132 -3.83737e-07 0
1.04132 -3.87049e-07 0
1.04132 -3.90237e-07 0
1.04132 -3.93381e-07 0
1.04132 -3.96898e-07 0
1.04132 -4.02921e-07 0
1.04132 -4.22317e-07 0
1.04132 -5.10343e-07 0
1.04132 -9.47568e-07 0
1.04132 -3.14851e-06 0
1.04131 -1.41986e-05 0
1.0413 -6.64358e-05 0
1.04085 -0.000331294 0
1.04085 -0.000751527 0
1 -0.000751527 0
1 -0.00616523 0
1.02062 0.00616523 0
1.03477 0.0049447 0
1.03995 0.00201801 0
1.04133 0.000596409 0
1.04164 0.000143156 0
1.0417 2.96636e-05 0
1.04171 5.50076e-06 0
1.04171 9.13973e-07 0
1.04171 1.13607e-07 0
1.04171 -1.72549e-08 0
1.04171 -3.78347e-08 0
1.04171 -4.15372e-08 0
1.04171 -4.30419e-08 0
1.04171 -4.44782e-08 0
1.04171 -4.61078e-08 0
1.04171 -4.79466e-08 0
1.04171 -4.99873e-08 0
1.04171 -5.22242e-08 0
1.04171 -5.46534e-08 0
1.04171 -5.72711e-08 0
1.04171 -6.00742e-08 0
1.04171 -6.30594e-08 0
1.04171 -6.62236e-08 0
1.04171 -6.95629e-08 0
1.0417 -7.30736e-08 0
1.0417 -7.67507e-08 0
1.0417 -8.0591e-08 0
1.0417 -8.45905e-08 0
1.0417 -8.87443e-08 0
1.0417 -9.30479e-08 0
1.0417 -9.74968e-08 0
1.0417 -1.02086e-07 0
1.0417 -1.06812e-07 0
1.0417 -1.11668e-07 0
1.0417 -1.16651e-07 0
1.0417 -1.21756e-07 0
1.0417 -1.26976e-07 0
1.0417 -1.32306e-07 0
1.0417 -1.37741e-07 0
1.0417 -1.43276e-07 0
1.0417 -1.48908e-07 0
1.0417 -1.5463e-07 0
1.0417 -1.60436e-07 0
1.0417 -1.6632e-07 0
1.0417 -1.72277e-07 0
1.0417 -1.78301e-07 0
1.0417 -1.84387e-07 0
1.0417 -1.90533e-07 0
1.0417 -1.96726e-07 0
1.0417 -2.02965e-07 0
1.0417 -2.09242e-07 0
1.0417 -2.15551e-07 0
1.0417 -2.2189e-07 0
1.0417 -2.28253e-07 0
1.0417 -2.34634e-07 0
1.0417 -2.41025e-07 0
1.0417 -2.47421e-07 0
1.0417 -2.53816e-07 0
1.0417 -2.60205e-07 0
1.0417 -2.66583e-07 0
1.0417 -2.72943e-07 0
1.0417 -2.7928e-07 0
1.0417 -2.85586e-07 0
1.04169 -2.91856e-07 0
1.04169 -2.98085e-07 0
1.04169 -3.04267e-07 0
1.04169 -3.10395e-07 0
1.04169 -3.16464e-07 0
1.04169 -3.22468e-07 0
1.04169 -3.28401e-07 0
1.04169 -3.34257e-07 0
1.04169 -3.40031e-07 0
1.04169 -3.45716e-07 0
1.04169 -3.51307e-07 0
1.04169 -3.56798e-07 0
1.04169 -3.62183e-07 0
1.04169 -3.67458e-07 0
1.04169 -3.72615e-07 0
1.04169 -3.7765e-07 0
1.04169 -3.82558e-07 0
1.04169 -3.87333e-07 0
1.04169 -3.91969e-07 0
1.04169 -3.96463e-07 0
1.04169 -4.00808e-07 0
1.04169 -4.05e-07 0
1.04169 -4.09035e-07 0
1.04169 -4.12908e-07 0
1.04168 -4.16618e-07 0
1.04168 -4.2017e-07 0
1.04168 -4.23613e-07 0
1.04168 -4.27202e-07 0
1.04168 -4.32237e-07 0
1.04168 -4.4534e-07 0
1.04168 -5.00163e-07 0
1.04168 -7.67187e-07 0
1.04168 -2.10099e-06 0
1.04166 -8.64015e-06 0
1.04158 -3.92613e-05 0
1.04109 -0.000167609 0
1.04109 -0.000376325 0
1 -0.000376325 0
1 -2.74739e-07 0
1.01849 2.74739e-07 0
1.03333 -3.55866e-07 0
1.03939 -6.83766e-07 0
1.04118 -5.15158e-07 0
1.04161 -2.73516e-07 0
1.0417 -1.2638e-07 0
1.04171 -5.90774e-08 0
1.04172 -3.21664e-08 0
1.04172 -2.2264e-08 0
1.04172 -1.91825e-08 0
1.04172 -1.88003e-08 0
1.04172 -1.95637e-08 0
1.04172 -2.08971e-08 0
1.04172 -2.25849e-08 0
1.04172 -2.45456e-08 0
1.04172 -2.67477e-08 0
1.04172 -2.91775e-08 0
1.04172 -3.18284e-08 0
1.04172 -3.46958e-08 0
1.04172 -3.77755e-08 0
1.04171 -4.10636e-08 0
1.04171 -4.45565e-08 0
1.04171 -4.82508e-08 0
1.04171 -5.21417e-08 0
1.04171 -5.62253e-08 0
1.04171 -6.04953e-08 0
1.04171 -6.49482e-08 0
1.04171 -6.95794e-08 0
1.04171 -7.43832e-08 0
1.04171 -7.93545e-08 0
1.04171 -8.44882e-08 0
1.04171 -8.97789e-08 0
1.04171 -9.52211e-08 0
1.04171 -1.00809e-07 0
1.04171 -1.06538e-07 0
1.04171 -1.12402e-07 0
1.04171 -1.18395e-07 0
1.04171 -1.24509e-07 0
1.04171 -1.3074e-07 0
1.04171 -1.37082e-07 0
1.04171 -1.4353e-07 0
1.04171 -1.50077e-07 0
1.04171 -1.56716e-07 0
1.04171 -1.63441e-07 0
1.04171 -1.70245e-07 0
1.04171 -1.77123e-07 0
1.04171 -1.84068e-07 0
1.04171 -1.91074e-07 0
1.04171 -1.98136e-07 0
1.04171 -2.05247e-07 0
1.04171 -2.12401e-07 0
1.04171 -2.19592e-07 0
1.04171 -2.2681e-07 0
1.04171 -2.34049e-07 0
1.04171 -2.41302e-07 0
1.04171 -2.48563e-07 0
1.04171 -2.55826e-07 0
1.04171 -2.63085e-07 0
1.04171 -2.70334e-07 0
1.04171 -2.77565e-07 0
1.04171 -2.84773e-07 0
1.0417 -2.91949e-07 0
1.0417 -2.99088e-07 0
1.0417 -3.06182e-07 0
1.0417 -3.13226e-07 0
1.0417 -3.20212e-07 0
1.0417 -3.27134e-07 0
1.0417 -3.33985e-07 0
1.0417 -3.40759e-07 0
1.0417 -3.47448e-07 0
1.0417 -3.54047e-07 0
1.0417 -3.60548e-07 0
1.0417 -3.66946e-07 0
1.0417 -3.73233e-07 0
1.0417 -3.79403e-07 0
1.0417 -3.8545e-07 0
1.0417 -3.91367e-07 0
1.0417 -3.97149e-07 0
1.0417 -4.02788e-07 0
1.0417 -4.08279e-07 0
1.0417 -4.13617e-07 0
1.0417 -4.18794e-07 0
1.0417 -4.23807e-07 0
1.0417 -4.28648e-07 0
1.0417 -4.33313e-07 0
1.04169 -4.37796e-07 0
1.04169 -4.42092e-07 0
1.04169 -4.46198e-07 0
1.04169 -4.50109e-07 0
1.04169 -4.53822e-07 0
1.04169 -4.57337e-07 0
1.04169 -4.60647e-07 0
1.04169 -4.63716e-07 0
1.04169 -4.66377e-07 0
1.04169 -4.68433e-07 0
1.04168 -4.70495e-07 0
1.04166 -4.71764e-07 0
1.04154 -4.71599e-07 0
1.04104 -4.6776e-07 0
1.04104 -4.57686e-07 0
1 -4.57686e-07 0
1 0.00616474 0
1.0185 -0.00616474 0
1.03333 -0.00494545 0
1.03939 -0.00201936 0
1.04118 -0.000597406 0
1.04161 -0.00014368 0
1.0417 -2.99049e-05 0
1.04171 -5.61407e-06 0
1.04172 -9.76402e-07 0
1.04172 -1.57406e-07 0
1.04172 -2.08442e-08 0
1.04172 3.27283e-10 0
1.04172 2.43905e-09 0
1.04172 1.25324e-09 0
1.04172 -6.94847e-10 0
1.04172 -2.98992e-09 0
1.04172 -5.55638e-09 0
1.04172 -8.37575e-09 0
1.04172 -1.14407e-08 0
1.04172 -1.47463e-08 0
1.04172 -1.82879e-08 0
1.04171 -2.20611e-08 0
1.04171 -2.60613e-08 0
1.04171 -3.02857e-08 0
1.04171 -3.47282e-08 0
1.04171 -3.93848e-08 0
1.04171 -4.42473e-08 0
1.04171 -4.93128e-08 0
1.04171 -5.45756e-08 0
1.04171 -6.00293e-08 0
1.04171 -6.56682e-08 0
1.04171 -7.14864e-08 0
1.04171 -7.7478e-08 0
1.04171 -8.36368e-08 0
1.04171 -8.99564e-08 0
1.04171 -9.64307e-08 0
1.04171 -1.03055e-07 0
1.04171 -1.0982e-07 0
1.04171 -1.16718e-07 0
1.04171 -1.23745e-07 0
1.04171 -1.30892e-07 0
1.04171 -1.38156e-07 0
1.04171 -1.45529e-07 0
1.04171 -1.53002e-07 0
1.04171 -1.60567e-07 0
1.04171 -1.68218e-07 0
1.04171 -1.75949e-07 0
1.04171 -1.83753e-07 0
1.04171 -1.9162e-07 0
1.04171 -1.99548e-07 0
1.04171 -2.07532e-07 0
1.04171 -2.15564e-07 0
1.04171 -2.23636e-07 0
1.04171 -2.31734e-07 0
1.04171 -2.39847e-07 0
1.04171 -2.47972e-07 0
1.04171 -2.56103e-07 0
1.04171 -2.64233e-07 0
1.04171 -2.72356e-07 0
1.04171 -2.80463e-07 0
1.04171 -2.88548e-07 0
1.04171 -2.96603e-07 0
1.0417 -3.04619e-07 0
1.0417 -3.1259e-07 0
1.0417 -3.20508e-07 0
1.0417 -3.28366e-07 0
1.0417 -3.36157e-07 0
1.0417 -3.43872e-07 0
1.0417 -3.51505e-07 0
1.0417 -3.59049e-07 0
1.0417 -3.66494e-07 0
1.0417 -3.73835e-07 0
1.0417 -3.81064e-07 0
1.0417 -3.88174e-07 0
1.0417 -3.95157e-07 0
1.0417 -4.02006e-07 0
1.0417 -4.08714e-07 0
1.0417 -4.15274e-07 0
1.0417 -4.21679e-07 0
1.0417 -4.27922e-07 0
1.0417 -4.33997e-07 0
1.0417 -4.39897e-07 0
1.0417 -4.45616e-07 0
1.0417 -4.51146e-07 0
1.0417 -4.56483e-07 0
1.0417 -4.6162e-07 0
1.04169 -4.66551e-07 0
1.04169 -4.71271e-07 0
1.04169 -4.75772e-07 0
1.04169 -4.80041e-07 0
1.04169 -4.84024e-07 0
1.04169 -4.87465e-07 0
1.04169 -4.89054e-07 0
1.04169 -4.82107e-07 0
1.04169 -4.32628e-07 0
1.04169 -1.69647e-07 0
1.04168 1.15994e-06 0
1.04166 7.69648e-06 0
1.04154 3.83179e-05 0
1.04104 0.000166673 0
1.04104 0.000375409 0
1 0.000375409 0
1 0.0130371 0
1.02062 -0.0130371 0
1.03477 -0.00966449 0
1.03995 -0.00374397 0
1.04133 -0.0010594 0
1.04164 -0.000244846 0
1.0417 -4.91628e-05 0
1.04171 -8.92503e-06 0
1.04171 -1.49135e-06 0
1.04171 -2.16474e-07 0
1.04171 -9.73713e-09 0
1.04171 2.15124e-08 0
1.04171 2.47493e-08 0
1.04171 2.34298e-08 0
1.04171 2.11755e-08 0
1.04171 1.85379e-08 0
1.04171 1.56053e-08 0
1.04171 1.23959e-08 0
1.04171 8.91678e-09 0
1.04171 5.1729e-09 0
1.04171 1.16948e-09 0
1.04171 -3.08851e-09 0
1.04171 -7.59591e-09 0
1.04171 -1.23503e-08 0
1.0417 -1.73439e-08 0
1.0417 -2.25737e-08 0
1.0417 -2.80282e-08 0
1.0417 -3.37058e-08 0
1.0417 -3.96001e-08 0
1.0417 -4.57033e-08 0
1.0417 -5.20094e-08 0
1.0417 -5.85118e-08 0
1.0417 -6.52039e-08 0
1.0417 -7.20789e-08 0
1.0417 -7.91294e-08 0
1.0417 -8.63487e-08 0
1.0417 -9.37318e-08 0
1.0417 -1.01269e-07 0
1.0417 -1.08951e-07 0
1.0417 -1.16772e-07 0
1.0417 -1.24725e-07 0
1.0417 -1.32805e-07 0
1.0417 -1.41002e-07 0
1.0417 -1.49307e-07 0
1.0417 -1.57713e-07 0
1.0417 -1.66209e-07 0
1.0417 -1.74794e-07 0
1.0417 -1.83456e-07 0
1.0417 -1.92181e-07 0
1.0417 -2.00977e-07 0
1.0417 -2.0983e-07 0
1.0417 -2.18739e-07 0
1.0417 -2.27691e-07 0
1.0417 -2.36667e-07 0
1.0417 -2.45654e-07 0
1.0417 -2.5465e-07 0
1.0417 -2.6365e-07 0
1.0417 -2.72645e-07 0
1.0417 -2.81631e-07 0
1.0417 -2.90597e-07 0
1.0417 -2.99535e-07 0
1.0417 -3.08435e-07 0
1.0417 -3.17291e-07 0
1.0417 -3.26093e-07 0
1.04169 -3.34834e-07 0
1.04169 -3.43506e-07 0
1.04169 -3.521e-07 0
1.04169 -3.60608e-07 0
1.04169 -3.69022e-07 0
1.04169 -3.77334e-07 0
1.04169 -3.85535e-07 0
1.04169 -3.93618e-07 0
1.04169 -4.01574e-07 0
1.04169 -4.09394e-07 0
1.04169 -4.17072e-07 0
1.04169 -4.24599e-07 0
1.04169 -4.31968e-07 0
1.04169 -4.3917e-07 0
1.04169 -4.46198e-07 0
1.04169 -4.53045e-07 0
1.04169 -4.59703e-07 0
1.04169 -4.66164e-07 0
1.04169 -4.72423e-07 0
1.04169 -4.78471e-07 0
1.04169 -4.84303e-07 0
1.04169 -4.89911e-07 0
1.04169 -4.9529e-07 0
1.04169 -5.00432e-07 0
1.04168 -5.05329e-07 0
1.04168 -5.09961e-07 0
1.04168 -5.14242e-07 0
1.04168 -5.17753e-07 0
1.04168 -5.18364e-07 0
1.04168 -5.0518e-07 0
1.04168 -4.22588e-07 0
1.04168 1.08116e-08 0
1.04168 2.20727e-06 0
1.04166 1.32545e-05 0