# vtk DataFile Version 2.0
FlowField
ASCII
DATASET STRUCTURED_GRID
DIMENSIONS 102 1 12 
POINTS 1224 double
0 0 0
0.3 0 0
0.6 0 0
0.9 0 0
1.2 0 0
1.5 0 0
1.8 0 0
2.1 0 0
2.4 0 0
2.7 0 0
3 0 0
3.3 0 0
3.6 0 0
3.9 0 0
4.2 0 0
4.5 0 0
4.8 0 0
5.1 0 0
5.4 0 0
5.7 0 0
6 0 0
6.3 0 0
6.6 0 0
6.9 0 0
7.2 0 0
7.5 0 0
7.8 0 0
8.1 0 0
8.4 0 0
8.7 0 0
9 0 0
9.3 0 0
9.6 0 0
9.9 0 0
10.2 0 0
10.5 0 0
10.8 0 0
11.1 0 0
11.4 0 0
11.7 0 0
12 0 0
12.3 0 0
12.6 0 0
12.9 0 0
13.2 0 0
13.5 0 0
13.8 0 0
14.1 0 0
14.4 0 0
14.7 0 0
15 0 0
15.3 0 0
15.6 0 0
15.9 0 0
16.2 0 0
16.5 0 0
16.8 0 0
17.1 0 0
17.4 0 0
17.7 0 0
18 0 0
18.3 0 0
18.6 0 0
18.9 0 0
19.2 0 0
19.5 0 0
19.8 0 0
20.1 0 0
20.4 0 0
20.7 0 0
21 0 0
21.3 0 0
21.6 0 0
21.9 0 0
22.2 0 0
22.5 0 0
22.8 0 0
23.1 0 0
23.4 0 0
23.7 0 0
24 0 0
24.3 0 0
24.6 0 0
24.9 0 0
25.2 0 0
25.5 0 0
25.8 0 0
26.1 0 0
26.4 0 0
26.7 0 0
27 0 0
27.3 0 0
27.6 0 0
27.9 0 0
28.2 0 0
28.5 0 0
28.8 0 0
29.1 0 0
29.4 0 0
29.7 0 0
30 0 0
30.3 0 0
0 0.1 0
0.3 0.1 0
0.6 0.1 0
0.9 0.1 0
1.2 0.1 0
1.5 0.1 0
1.8 0.1 0
2.1 0.1 0
2.4 0.1 0
2.7 0.1 0
3 0.1 0
3.3 0.1 0
3.6 0.1 0
3.9 0.1 0
4.2 0.1 0
4.5 0.1 0
4.8 0.1 0
5.1 0.1 0
5.4 0.1 0
5.7 0.1 0
6 0.1 0
6.3 0.1 0
6.6 0.1 0
6.9 0.1 0
7.2 0.1 0
7.5 0.1 0
7.8 0.1 0
8.1 0.1 0
8.4 0.1 0
8.7 0.1 0
9 0.1 0
9.3 0.1 0
9.6 0.1 0
9.9 0.1 0
10.2 0.1 0
10.5 0.1 0
10.8 0.1 0
11.1 0.1 0
11.4 0.1 0
11.7 0.1 0
12 0.1 0
12.3 0.1 0
12.6 0.1 0
12.9 0.1 0
13.2 0.1 0
13.5 0.1 0
13.8 0.1 0
14.1 0.1 0
14.4 0.1 0
14.7 0.1 0
15 0.1 0
15.3 0.1 0
15.6 0.1 0
15.9 0.1 0
16.2 0.1 0
16.5 0.1 0
16.8 0.1 0
17.1 0.1 0
17.4 0.1 0
17.7 0.1 0
18 0.1 0
18.3 0.1 0
18.6 0.1 0
18.9 0.1 0
19.2 0.1 0
19.5 0.1 0
19.8 0.1 0
20.1 0.1 0
20.4 0.1 0
20.7 0.1 0
21 0.1 0
21.3 0.1 0
21.6 0.1 0
21.9 0.1 0
22.2 0.1 0
22.5 0.1 0
22.8 0.1 0
23.1 0.1 0
23.4 0.1 0
23.7 0.1 0
24 0.1 0
24.3 0.1 0
24.6 0.1 0
24.9 0.1 0
25.2 0.1 0
25.5 0.1 0
25.8 0.1 0
26.1 0.1 0
26.4 0.1 0
26.7 0.1 0
27 0.1 0
27.3 0.1 0
27.6 0.1 0
27.9 0.1 0
28.2 0.1 0
28.5 0.1 0
28.8 0.1 0
29.1 0.1 0
29.4 0.1 0
29.7 0.1 0
30 0.1 0
30.3 0.1 0
0 0.2 0
0.3 0.2 0
0.6 0.2 0
0.9 0.2 0
1.2 0.2 0
1.5 0.2 0
1.8 0.2 0
2.1 0.2 0
2.4 0.2 0
2.7 0.2 0
3 0.2 0
3.3 0.2 0
3.6 0.2 0
3.9 0.2 0
4.2 0.2 0
4.5 0.2 0
4.8 0.2 0
5.1 0.2 0
5.4 0.2 0
5.7 0.2 0
6 0.2 0
6.3 0.2 0
6.6 0.2 0
6.9 0.2 0
7.2 0.2 0
7.5 0.2 0
7.8 0.2 0
8.1 0.2 0
8.4 0.2 0
8.7 0.2 0
9 0.2 0
9.3 0.2 0
9.6 0.2 0
9.9 0.2 0
10.2 0.2 0
10.5 0.2 0
10.8 0.2 0
11.1 0.2 0
11.4 0.2 0
11.7 0.2 0
12 0.2 0
12.3 0.2 0
12.6 0.2 0
12.9 0.2 0
13.2 0.2 0
13.5 0.2 0
13.8 0.2 0
14.1 0.2 0
14.4 0.2 0
14.7 0.2 0
15 0.2 0
15.3 0.2 0
15.6 0.2 0
15.9 0.2 0
16.2 0.2 0
16.5 0.2 0
16.8 0.2 0
17.1 0.2 0
17.4 0.2 0
17.7 0.2 0
18 0.2 0
18.3 0.2 0
18.6 0.2 0
18.9 0.2 0
19.2 0.2 0
19.5 0.2 0
19.8 0.2 0
20.1 0.2 0
20.4 0.2 0
20.7 0.2 0
21 0.2 0
21.3 0.2 0
21.6 0.2 0
21.9 0.2 0
22.2 0.2 0
22.5 0.2 0
22.8 0.2 0
23.1 0.2 0
23.4 0.2 0
23.7 0.2 0
24 0.2 0
24.3 0.2 0
24.6 0.2 0
24.9 0.2 0
25.2 0.2 0
25.5 0.2 0
25.8 0.2 0
26.1 0.2 0
26.4 0.2 0
26.7 0.2 0
27 0.2 0
27.3 0.2 0
27.6 0.2 0
27.9 0.2 0
28.2 0.2 0
28.5 0.2 0
28.8 0.2 0
29.1 0.2 0
29.4 0.2 0
29.7 0.2 0
30 0.2 0
30.3 0.2 0
0 0.3 0
0.3 0.3 0
0.6 0.3 0
0.9 0.3 0
1.2 0.3 0
1.5 0.3 0
1.8 0.3 0
2.1 0.3 0
2.4 0.3 0
2.7 0.3 0
3 0.3 0
3.3 0.3 0
3.6 0.3 0
3.9 0.3 0
4.2 0.3 0
4.5 0.3 0
4.8 0.3 0
5.1 0.3 0
5.4 0.3 0
5.7 0.3 0
6 0.3 0
6.3 0.3 0
6.6 0.3 0
6.9 0.3 0
7.2 0.3 0
7.5 0.3 0
7.8 0.3 0
8.1 0.3 0
8.4 0.3 0
8.7 0.3 0
9 0.3 0
9.3 0.3 0
9.6 0.3 0
9.9 0.3 0
10.2 0.3 0
10.5 0.3 0
10.8 0.3 0
11.1 0.3 0
11.4 0.3 0
11.7 0.3 0
12 0.3 0
12.3 0.3 0
12.6 0.3 0
12.9 0.3 0
13.2 0.3 0
13.5 0.3 0
13.8 0.3 0
14.1 0.3 0
14.4 0.3 0
14.7 0.3 0
15 0.3 0
15.3 0.3 0
15.6 0.3 0
15.9 0.3 0
16.2 0.3 0
16.5 0.3 0
16.8 0.3 0
17.1 0.3 0
17.4 0.3 0
17.7 0.3 0
18 0.3 0
18.3 0.3 0
18.6 0.3 0
18.9 0.3 0
19.2 0.3 0
19.5 0.3 0
19.8 0.3 0
20.1 0.3 0
20.4 0.3 0
20.7 0.3 0
21 0.3 0
21.3 0.3 0
21.6 0.3 0
21.9 0.3 0
22.2 0.3 0
22.5 0.3 0
22.8 0.3 0
23.1 0.3 0
23.4 0.3 0
23.7 0.3 0
24 0.3 0
24.3 0.3 0
24.6 0.3 0
24.9 0.3 0
25.2 0.3 0
25.5 0.3 0
25.8 0.3 0
26.1 0.3 0
26.4 0.3 0
26.7 0.3 0
27 0.3 0
27.3 0.3 0
27.6 0.3 0
27.9 0.3 0
28.2 0.3 0
28.5 0.3 0
28.8 0.3 0
29.1 0.3 0
29.4 0.3 0
29.7 0.3 0
30 0.3 0
30.3 0.3 0
0 0.4 0
0.3 0.4 0
0.6 0.4 0
0.9 0.4 0
1.2 0.4 0
1.5 0.4 0
1.8 0.4 0
2.1 0.4 0
2.4 0.4 0
2.7 0.4 0
3 0.4 0
3.3 0.4 0
3.6 0.4 0
3.9 0.4 0
4.2 0.4 0
4.5 0.4 0
4.8 0.4 0
5.1 0.4 0
5.4 0.4 0
5.7 0.4 0
6 0.4 0
6.3 0.4 0
6.6 0.4 0
6.9 0.4 0
7.2 0.4 0
7.5 0.4 0
7.8 0.4 0
8.1 0.4 0
8.4 0.4 0
8.7 0.4 0
9 0.4 0
9.3 0.4 0
9.6 0.4 0
9.9 0.4 0
10.2 0.4 0
10.5 0.4 0
10.8 0.4 0
11.1 0.4 0
11.4 0.4 0
11.7 0.4 0
12 0.4 0
12.3 0.4 0
12.6 0.4 0
12.9 0.4 0
13.2 0.4 0
13.5 0.4 0
13.8 0.4 0
14.1 0.4 0
14.4 0.4 0
14.7 0.4 0
15 0.4 0
15.3 0.4 0
15.6 0.4 0
15.9 0.4 0
16.2 0.4 0
16.5 0.4 0
16.8 0.4 0
17.1 0.4 0
17.4 0.4 0
17.7 0.4 0
18 0.4 0
18.3 0.4 0
18.6 0.4 0
18.9 0.4 0
19.2 0.4 0
19.5 0.4 0
19.8 0.4 0
20.1 0.4 0
20.4 0.4 0
20.7 0.4 0
21 0.4 0
21.3 0.4 0
21.6 0.4 0
21.9 0.4 0
22.2 0.4 0
22.5 0.4 0
22.8 0.4 0
23.1 0.4 0
23.4 0.4 0
23.7 0.4 0
24 0.4 0
24.3 0.4 0
24.6 0.4 0
24.9 0.4 0
25.2 0.4 0
25.5 0.4 0
25.8 0.4 0
26.1 0.4 0
26.4 0.4 0
26.7 0.4 0
27 0.4 0
27.3 0.4 0
27.6 0.4 0
27.9 0.4 0
28.2 0.4 0
28.5 0.4 0
28.8 0.4 0
29.1 0.4 0
29.4 0.4 0
29.7 0.4 0
30 0.4 0
30.3 0.4 0
0 0.5 0
0.3 0.5 0
0.6 0.5 0
0.9 0.5 0
1.2 0.5 0
1.5 0.5 0
1.8 0.5 0
2.1 0.5 0
2.4 0.5 0
2.7 0.5 0
3 0.5 0
3.3 0.5 0
3.6 0.5 0
3.9 0.5 0
4.2 0.5 0
4.5 0.5 0
4.8 0.5 0
5.1 0.5 0
5.4 0.5 0
5.7 0.5 0
6 0.5 0
6.3 0.5 0
6.6 0.5 0
6.9 0.5 0
7.2 0.5 0
7.5 0.5 0
7.8 0.5 0
8.1 0.5 0
8.4 0.5 0
8.7 0.5 0
9 0.5 0
9.3 0.5 0
9.6 0.5 0
9.9 0.5 0
10.2 0.5 0
10.5 0.5 0
10.8 0.5 0
11.1 0.5 0
11.4 0.5 0
11.7 0.5 0
12 0.5 0
12.3 0.5 0
12.6 0.5 0
12.9 0.5 0
13.2 0.5 0
13.5 0.5 0
13.8 0.5 0
14.1 0.5 0
14.4 0.5 0
14.7 0.5 0
15 0.5 0
15.3 0.5 0
15.6 0.5 0
15.9 0.5 0
16.2 0.5 0
16.5 0.5 0
16.8 0.5 0
17.1 0.5 0
17.4 0.5 0
17.7 0.5 0
18 0.5 0
18.3 0.5 0
18.6 0.5 0
18.9 0.5 0
19.2 0.5 0
19.5 0.5 0
19.8 0.5 0
20.1 0.5 0
20.4 0.5 0
20.7 0.5 0
21 0.5 0
21.3 0.5 0
21.6 0.5 0
21.9 0.5 0
22.2 0.5 0
22.5 0.5 0
22.8 0.5 0
23.1 0.5 0
23.4 0.5 0
23.7 0.5 0
24 0.5 0
24.3 0.5 0
24.6 0.5 0
24.9 0.5 0
25.2 0.5 0
25.5 0.5 0
25.8 0.5 0
26.1 0.5 0
26.4 0.5 0
26.7 0.5 0
27 0.5 0
27.3 0.5 0
27.6 0.5 0
27.9 0.5 0
28.2 0.5 0
28.5 0.5 0
28.8 0.5 0
29.1 0.5 0
29.4 0.5 0
29.7 0.5 0
30 0.5 0
30.3 0.5 0
0 0.6 0
0.3 0.6 0
0.6 0.6 0
0.9 0.6 0
1.2 0.6 0
1.5 0.6 0
1.8 0.6 0
2.1 0.6 0
2.4 0.6 0
2.7 0.6 0
3 0.6 0
3.3 0.6 0
3.6 0.6 0
3.9 0.6 0
4.2 0.6 0
4.5 0.6 0
4.8 0.6 0
5.1 0.6 0
5.4 0.6 0
5.7 0.6 0
6 0.6 0
6.3 0.6 0
6.6 0.6 0
6.9 0.6 0
7.2 0.6 0
7.5 0.6 0
7.8 0.6 0
8.1 0.6 0
8.4 0.6 0
8.7 0.6 0
9 0.6 0
9.3 0.6 0
9.6 0.6 0
9.9 0.6 0
10.2 0.6 0
10.5 0.6 0
10.8 0.6 0
11.1 0.6 0
11.4 0.6 0
11.7 0.6 0
12 0.6 0
12.3 0.6 0
12.6 0.6 0
12.9 0.6 0
13.2 0.6 0
13.5 0.6 0
13.8 0.6 0
14.1 0.6 0
14.4 0.6 0
14.7 0.6 0
15 0.6 0
15.3 0.6 0
15.6 0.6 0
15.9 0.6 0
16.2 0.6 0
16.5 0.6 0
16.8 0.6 0
17.1 0.6 0
17.4 0.6 0
17.7 0.6 0
18 0.6 0
18.3 0.6 0
18.6 0.6 0
18.9 0.6 0
19.2 0.6 0
19.5 0.6 0
19.8 0.6 0
20.1 0.6 0
20.4 0.6 0
20.7 0.6 0
21 0.6 0
21.3 0.6 0
21.6 0.6 0
21.9 0.6 0
22.2 0.6 0
22.5 0.6 0
22.8 0.6 0
23.1 0.6 0
23.4 0.6 0
23.7 0.6 0
24 0.6 0
24.3 0.6 0
24.6 0.6 0
24.9 0.6 0
25.2 0.6 0
25.5 0.6 0
25.8 0.6 0
26.1 0.6 0
26.4 0.6 0
26.7 0.6 0
27 0.6 0
27.3 0.6 0
27.6 0.6 0
27.9 0.6 0
28.2 0.6 0
28.5 0.6 0
28.8 0.6 0
29.1 0.6 0
29.4 0.6 0
29.7 0.6 0
30 0.6 0
30.3 0.6 0
0 0.7 0
0.3 0.7 0
0.6 0.7 0
0.9 0.7 0
1.2 0.7 0
1.5 0.7 0
1.8 0.7 0
2.1 0.7 0
2.4 0.7 0
2.7 0.7 0
3 0.7 0
3.3 0.7 0
3.6 0.7 0
3.9 0.7 0
4.2 0.7 0
4.5 0.7 0
4.8 0.7 0
5.1 0.7 0
5.4 0.7 0
5.7 0.7 0
6 0.7 0
6.3 0.7 0
6.6 0.7 0
6.9 0.7 0
7.2 0.7 0
7.5 0.7 0
7.8 0.7 0
8.1 0.7 0
8.4 0.7 0
8.7 0.7 0
9 0.7 0
9.3 0.7 0
9.6 0.7 0
9.9 0.7 0
10.2 0.7 0
10.5 0.7 0
10.8 0.7 0
11.1 0.7 0
11.4 0.7 0
11.7 0.7 0
12 0.7 0
12.3 0.7 0
12.6 0.7 0
12.9 0.7 0
13.2 0.7 0
13.5 0.7 0
13.8 0.7 0
14.1 0.7 0
14.4 0.7 0
14.7 0.7 0
15 0.7 0
15.3 0.7 0
15.6 0.7 0
15.9 0.7 0
16.2 0.7 0
16.5 0.7 0
16.8 0.7 0
17.1 0.7 0
17.4 0.7 0
17.7 0.7 0
18 0.7 0
18.3 0.7 0
18.6 0.7 0
18.9 0.7 0
19.2 0.7 0
19.5 0.7 0
19.8 0.7 0
20.1 0.7 0
20.4 0.7 0
20.7 0.7 0
21 0.7 0
21.3 0.7 0
21.6 0.7 0
21.9 0.7 0
22.2 0.7 0
22.5 0.7 0
22.8 0.7 0
23.1 0.7 0
23.4 0.7 0
23.7 0.7 0
24 0.7 0
24.3 0.7 0
24.6 0.7 0
24.9 0.7 0
25.2 0.7 0
25.5 0.7 0
25.8 0.7 0
26.1 0.7 0
26.4 0.7 0
26.7 0.7 0
27 0.7 0
27.3 0.7 0
27.6 0.7 0
27.9 0.7 0
28.2 0.7 0
28.5 0.7 0
28.8 0.7 0
29.1 0.7 0
29.4 0.7 0
29.7 0.7 0
30 0.7 0
30.3 0.7 0
0 0.8 0
0.3 0.8 0
0.6 0.8 0
0.9 0.8 0
1.2 0.8 0
1.5 0.8 0
1.8 0.8 0
2.1 0.8 0
2.4 0.8 0
2.7 0.8 0
3 0.8 0
3.3 0.8 0
3.6 0.8 0
3.9 0.8 0
4.2 0.8 0
4.5 0.8 0
4.8 0.8 0
5.1 0.8 0
5.4 0.8 0
5.7 0.8 0
6 0.8 0
6.3 0.8 0
6.6 0.8 0
6.9 0.8 0
7.2 0.8 0
7.5 0.8 0
7.8 0.8 0
8.1 0.8 0
8.4 0.8 0
8.7 0.8 0
9 0.8 0
9.3 0.8 0
9.6 0.8 0
9.9 0.8 0
10.2 0.8 0
10.5 0.8 0
10.8 0.8 0
11.1 0.8 0
11.4 0.8 0
11.7 0.8 0
12 0.8 0
12.3 0.8 0
12.6 0.8 0
12.9 0.8 0
13.2 0.8 0
13.5 0.8 0
13.8 0.8 0
14.1 0.8 0
14.4 0.8 0
14.7 0.8 0
15 0.8 0
15.3 0.8 0
15.6 0.8 0
15.9 0.8 0
16.2 0.8 0
16.5 0.8 0
16.8 0.8 0
17.1 0.8 0
17.4 0.8 0
17.7 0.8 0
18 0.8 0
18.3 0.8 0
18.6 0.8 0
18.9 0.8 0
19.2 0.8 0
19.5 0.8 0
19.8 0.8 0
20.1 0.8 0
20.4 0.8 0
20.7 0.8 0
21 0.8 0
21.3 0.8 0
21.6 0.8 0
21.9 0.8 0
22.2 0.8 0
22.5 0.8 0
22.8 0.8 0
23.1 0.8 0
23.4 0.8 0
23.7 0.8 0
24 0.8 0
24.3 0.8 0
24.6 0.8 0
24.9 0.8 0
25.2 0.8 0
25.5 0.8 0
25.8 0.8 0
26.1 0.8 0
26.4 0.8 0
26.7 0.8 0
27 0.8 0
27.3 0.8 0
27.6 0.8 0
27.9 0.8 0
28.2 0.8 0
28.5 0.8 0
28.8 0.8 0
29.1 0.8 0
29.4 0.8 0
29.7 0.8 0
30 0.8 0
30.3 0.8 0
0 0.9 0
0.3 0.9 0
0.6 0.9 0
0.9 0.9 0
1.2 0.9 0
1.5 0.9 0
1.8 0.9 0
2.1 0.9 0
2.4 0.9 0
2.7 0.9 0
3 0.9 0
3.3 0.9 0
3.6 0.9 0
3.9 0.9 0
4.2 0.9 0
4.5 0.9 0
4.8 0.9 0
5.1 0.9 0
5.4 0.9 0
5.7 0.9 0
6 0.9 0
6.3 0.9 0
6.6 0.9 0
6.9 0.9 0
7.2 0.9 0
7.5 0.9 0
7.8 0.9 0
8.1 0.9 0
8.4 0.9 0
8.7 0.9 0
9 0.9 0
9.3 0.9 0
9.6 0.9 0
9.9 0.9 0
10.2 0.9 0
10.5 0.9 0
10.8 0.9 0
11.1 0.9 0
11.4 0.9 0
11.7 0.9 0
12 0.9 0
12.3 0.9 0
12.6 0.9 0
12.9 0.9 0
13.2 0.9 0
13.5 0.9 0
13.8 0.9 0
14.1 0.9 0
14.4 0.9 0
14.7 0.9 0
15 0.9 0
15.3 0.9 0
15.6 0.9 0
15.9 0.9 0
16.2 0.9 0
16.5 0.9 0
16.8 0.9 0
17.1 0.9 0
17.4 0.9 0
17.7 0.9 0
18 0.9 0
18.3 0.9 0
18.6 0.9 0
18.9 0.9 0
19.2 0.9 0
19.5 0.9 0
19.8 0.9 0
20.1 0.9 0
20.4 0.9 0
20.7 0.9 0
21 0.9 0
21.3 0.9 0
21.6 0.9 0
21.9 0.9 0
22.2 0.9 0
22.5 0.9 0
22.8 0.9 0
23.1 0.9 0
23.4 0.9 0
23.7 0.9 0
24 0.9 0
24.3 0.9 0
24.6 0.9 0
24.9 0.9 0
25.2 0.9 0
25.5 0.9 0
25.8 0.9 0
26.1 0.9 0
26.4 0.9 0
26.7 0.9 0
27 0.9 0
27.3 0.9 0
27.6 0.9 0
27.9 0.9 0
28.2 0.9 0
28.5 0.9 0
28.8 0.9 0
29.1 0.9 0
29.4 0.9 0
29.7 0.9 0
30 0.9 0
30.3 0.9 0
0 1 0
0.3 1 0
0.6 1 0
0.9 1 0
1.2 1 0
1.5 1 0
1.8 1 0
2.1 1 0
2.4 1 0
2.7 1 0
3 1 0
3.3 1 0
3.6 1 0
3.9 1 0
4.2 1 0
4.5 1 0
4.8 1 0
5.1 1 0
5.4 1 0
5.7 1 0
6 1 0
6.3 1 0
6.6 1 0
6.9 1 0
7.2 1 0
7.5 1 0
7.8 1 0
8.1 1 0
8.4 1 0
8.7 1 0
9 1 0
9.3 1 0
9.6 1 0
9.9 1 0
10.2 1 0
10.5 1 0
10.8 1 0
11.1 1 0
11.4 1 0
11.7 1 0
12 1 0
12.3 1 0
12.6 1 0
12.9 1 0
13.2 1 0
13.5 1 0
13.8 1 0
14.1 1 0
14.4 1 0
14.7 1 0
15 1 0
15.3 1 0
15.6 1 0
15.9 1 0
16.2 1 0
16.5 1 0
16.8 1 0
17.1 1 0
17.4 1 0
17.7 1 0
18 1 0
18.3 1 0
18.6 1 0
18.9 1 0
19.2 1 0
19.5 1 0
19.8 1 0
20.1 1 0
20.4 1 0
20.7 1 0
21 1 0
21.3 1 0
21.6 1 0
21.9 1 0
22.2 1 0
22.5 1 0
22.8 1 0
23.1 1 0
23.4 1 0
23.7 1 0
24 1 0
24.3 1 0
24.6 1 0
24.9 1 0
25.2 1 0
25.5 1 0
25.8 1 0
26.1 1 0
26.4 1 0
26.7 1 0
27 1 0
27.3 1 0
27.6 1 0
27.9 1 0
28.2 1 0
28.5 1 0
28.8 1 0
29.1 1 0
29.4 1 0
29.7 1 0
30 1 0
30.3 1 0
0 1.1 0
0.3 1.1 0
0.6 1.1 0
0.9 1.1 0
1.2 1.1 0
1.5 1.1 0
1.8 1.1 0
2.1 1.1 0
2.4 1.1 0
2.7 1.1 0
3 1.1 0
3.3 1.1 0
3.6 1.1 0
3.9 1.1 0
4.2 1.1 0
4.5 1.1 0
4.8 1.1 0
5.1 1.1 0
5.4 1.1 0
5.7 1.1 0
6 1.1 0
6.3 1.1 0
6.6 1.1 0
6.9 1.1 0
7.2 1.1 0
7.5 1.1 0
7.8 1.1 0
8.1 1.1 0
8.4 1.1 0
8.7 1.1 0
9 1.1 0
9.3 1.1 0
9.6 1.1 0
9.9 1.1 0
10.2 1.1 0
10.5 1.1 0
10.8 1.1 0
11.1 1.1 0
11.4 1.1 0
11.7 1.1 0
12 1.1 0
12.3 1.1 0
12.6 1.1 0
12.9 1.1 0
13.2 1.1 0
13.5 1.1 0
13.8 1.1 0
14.1 1.1 0
14.4 1.1 0
14.7 1.1 0
15 1.1 0
15.3 1.1 0
15.6 1.1 0
15.9 1.1 0
16.2 1.1 0
16.5 1.1 0
16.8 1.1 0
17.1 1.1 0
17.4 1.1 0
17.7 1.1 0
18 1.1 0
18.3 1.1 0
18.6 1.1 0
18.9 1.1 0
19.2 1.1 0
19.5 1.1 0
19.8 1.1 0
20.1 1.1 0
20.4 1.1 0
20.7 1.1 0
21 1.1 0
21.3 1.1 0
21.6 1.1 0
21.9 1.1 0
22.2 1.1 0
22.5 1.1 0
22.8 1.1 0
23.1 1.1 0
23.4 1.1 0
23.7 1.1 0
24 1.1 0
24.3 1.1 0
24.6 1.1 0
24.9 1.1 0
25.2 1.1 0
25.5 1.1 0
25.8 1.1 0
26.1 1.1 0
26.4 1.1 0
26.7 1.1 0
27 1.1 0
27.3 1.1 0
27.6 1.1 0
27.9 1.1 0
28.2 1.1 0
28.5 1.1 0
28.8 1.1 0
29.1 1.1 0
29.4 1.1 0
29.7 1.1 0
30 1.1 0
30.3 1.1 0

POINT_DATA 1224

SCALARS phi double
LOOKUP_TABLE default
0.999997
1
0.999986
0.999856
0.999429
0.99847
0.99678
0.994238
0.990799
0.986475
0.981316
0.975395
0.968799
0.961621
0.953954
0.945885
0.937499
0.928869
0.920063
0.911138
0.902148
0.893134
0.884134
0.87518
0.866298
0.857509
0.848833
0.840282
0.831869
0.823603
0.81549
0.807537
0.799747
0.792122
0.784664
0.777373
0.77025
0.763292
0.756498
0.749866
0.743394
0.737077
0.730913
0.724895
0.71902
0.71328
0.707668
0.702178
0.696798
0.69152
0.686334
0.681226
0.676186
0.671199
0.666253
0.661333
0.656424
0.651512
0.646583
0.641623
0.636618
0.631555
0.626421
0.621205
0.615896
0.610484
0.604961
0.599318
0.593551
0.587652
0.581618
0.575445
0.569132
0.562676
0.556078
0.549337
0.542455
0.535432
0.528272
0.520976
0.513548
0.50599
0.498307
0.490502
0.48258
0.474543
0.466396
0.458144
0.449791
0.441342
0.432799
0.42417
0.415456
0.406665
0.3978
0.38887
0.379862
0.370849
0.361595
0.352996
0.341635
0.341635
0.999997
1
0.999986
0.999856
0.999429
0.99847
0.99678
0.994238
0.990799
0.986475
0.981316
0.975395
0.968799
0.961621
0.953954
0.945885
0.937499
0.928869
0.920063
0.911138
0.902148
0.893134
0.884134
0.87518
0.866298
0.857509
0.848833
0.840282
0.831869
0.823603
0.81549
0.807537
0.799747
0.792122
0.784664
0.777373
0.77025
0.763292
0.756498
0.749866
0.743394
0.737077
0.730913
0.724895
0.71902
0.71328
0.707668
0.702178
0.696798
0.69152
0.686334
0.681226
0.676186
0.671199
0.666253
0.661333
0.656424
0.651512
0.646583
0.641623
0.636618
0.631555
0.626421
0.621205
0.615896
0.610484
0.604961
0.599318
0.593551
0.587652
0.581618
0.575445
0.569132
0.562676
0.556078
0.549337
0.542455
0.535432
0.528272
0.520976
0.513548
0.50599
0.498307
0.490502
0.48258
0.474543
0.466396
0.458144
0.449791
0.441342
0.432799
0.42417
0.415456
0.406665
0.3978
0.38887
0.379862
0.370849
0.361595
0.352996
0.341635
0.341635
0.999991
1.00001
0.999806
0.999198
0.997961
0.995905
0.992926
0.989008
0.984195
0.978566
0.972214
0.965241
0.957742
0.949813
0.941537
0.932993
0.924249
0.915368
0.906401
0.897394
0.888388
0.879414
0.870502
0.861673
0.852949
0.844343
0.83587
0.827539
0.819358
0.811334
0.80347
0.79577
0.788236
0.780868
0.773667
0.766632
0.759763
0.753057
0.746513
0.740127
0.733898
0.727823
0.721897
0.716116
0.710477
0.704975
0.699603
0.694356
0.689227
0.684209
0.679293
0.67447
0.669731
0.665065
0.660461
0.655908
0.651393
0.646905
0.64243
0.637955
0.633469
0.628959
0.624412
0.619816
0.615161
0.610436
0.605631
0.600736
0.595744
0.590646
0.585438
0.580111
0.574663
0.569089
0.563386
0.557551
0.551582
0.54548
0.539243
0.532872
0.526367
0.519729
0.512961
0.506062
0.499037
0.491887
0.484614
0.477221
0.469711
0.462087
0.454352
0.446509
0.438561
0.430512
0.422364
0.414128
0.405783
0.39742
0.388734
0.380834
0.369759
0.369759
1.00019
0.999812
0.997464
0.993419
0.987789
0.980769
0.972643
0.963715
0.954249
0.944452
0.934478
0.924439
0.914415
0.904462
0.89462
0.884916
0.875371
0.865997
0.856805
0.847798
0.838982
0.830357
0.821925
0.813684
0.805635
0.797774
0.790101
0.782613
0.775306
0.768179
0.761227
0.754449
0.74784
0.741397
0.735116
0.728995
0.72303
0.717217
0.711553
0.706033
0.700656
0.695417
0.690312
0.685339
0.680492
0.675768
0.671164
0.666674
0.662294
0.658018
0.653842
0.649758
0.645762
0.641845
0.638
0.634219
0.630494
0.626817
0.623176
0.619564
0.61597
0.612383
0.608795
0.605194
0.601571
0.597916
0.594218
0.590469
0.58666
0.582782
0.578827
0.574787
0.570656
0.566427
0.562095
0.557653
0.553098
0.548426
0.543632
0.538714
0.53367
0.528496
0.523192
0.517756
0.512188
0.506485
0.500649
0.494678
0.488574
0.482336
0.475964
0.46946
0.462824
0.456058
0.44916
0.442142
0.434974
0.427761
0.420158
0.413337
0.403374
0.403374
1.00542
0.994581
0.97508
0.954125
0.933452
0.913655
0.895039
0.877742
0.861776
0.84707
0.833512
0.820982
0.809362
0.798543
0.78843
0.77894
0.770002
0.761554
0.753544
0.745926
0.738662
0.731717
0.725064
0.718677
0.712536
0.706621
0.700915
0.695406
0.690081
0.684928
0.679937
0.675101
0.670411
0.665861
0.661444
0.657154
0.652987
0.648937
0.645001
0.641173
0.637451
0.63383
0.630307
0.62688
0.623544
0.620297
0.617135
0.614056
0.611057
0.608133
0.605283
0.602502
0.599787
0.597133
0.594536
0.591992
0.589495
0.587041
0.584623
0.582235
0.579872
0.577526
0.57519
0.572858
0.570521
0.568173
0.565805
0.56341
0.560979
0.558507
0.555984
0.553403
0.550757
0.548039
0.545242
0.542359
0.539384
0.536311
0.533133
0.529846
0.526444
0.522922
0.519276
0.515501
0.511594
0.507549
0.503365
0.499036
0.494562
0.489938
0.485161
0.480231
0.475145
0.469901
0.464495
0.458936
0.453191
0.447362
0.441115
0.435533
0.427121
0.427121
1.08202
0.91798
0.823015
0.765284
0.727175
0.700189
0.68008
0.66452
0.652111
0.641956
0.633457
0.626199
0.619896
0.614339
0.609379
0.604903
0.600826
0.597084
0.593624
0.590405
0.587396
0.584568
0.581901
0.579375
0.576975
0.574688
0.572504
0.570412
0.568405
0.566476
0.564618
0.562828
0.561099
0.559429
0.557813
0.556249
0.554734
0.553264
0.551839
0.550456
0.549113
0.547809
0.546542
0.54531
0.544112
0.542947
0.541814
0.540711
0.539638
0.538592
0.537573
0.536579
0.535609
0.534662
0.533734
0.532825
0.531932
0.531053
0.530185
0.529325
0.528469
0.527615
0.526759
0.525896
0.525021
0.524131
0.52322
0.522282
0.521313
0.520306
0.519255
0.518154
0.516997
0.515778
0.514489
0.513124
0.511676
0.510139
0.508506
0.506769
0.504923
0.50296
0.500874
0.498659
0.496307
0.493813
0.491171
0.488374
0.485417
0.482295
0.479002
0.475534
0.471885
0.468052
0.464028
0.459819
0.455393
0.45084
0.445859
0.441396
0.434459
0.434459
-0.0820204
0.0820204
0.176985
0.234716
0.272825
0.299811
0.31992
0.33548
0.347889
0.358044
0.366543
0.373801
0.380104
0.385661
0.390621
0.395097
0.399174
0.402916
0.406376
0.409595
0.412604
0.415432
0.418099
0.420625
0.423025
0.425312
0.427496
0.429588
0.431595
0.433524
0.435382
0.437172
0.438901
0.440571
0.442187
0.443751
0.445266
0.446736
0.448161
0.449544
0.450887
0.452191
0.453458
0.45469
0.455887
0.457051
0.458184
0.459285
0.460356
0.461397
0.46241
0.463396
0.464354
0.465285
0.466189
0.467066
0.467917
0.468742
0.469538
0.470307
0.471047
0.471756
0.472433
0.473077
0.473684
0.474253
0.474781
0.475263
0.475697
0.476078
0.476401
0.476663
0.476856
0.476976
0.477017
0.476972
0.476835
0.476598
0.476255
0.475798
0.475219
0.474511
0.473665
0.472674
0.471531
0.470226
0.468753
0.467103
0.46527
0.463246
0.461024
0.458598
0.455962
0.45311
0.450034
0.44674
0.443194
0.439481
0.435325
0.431576
0.425576
0.425576
-0.00541873
0.00541873
0.0249201
0.0458753
0.0665479
0.0863449
0.104961
0.122258
0.138224
0.15293
0.166488
0.179018
0.190638
0.201457
0.21157
0.22106
0.229998
0.238446
0.246456
0.254074
0.261338
0.268283
0.274936
0.281323
0.287464
0.293379
0.299085
0.304594
0.309919
0.315072
0.320063
0.324899
0.329589
0.334139
0.338556
0.342846
0.347013
0.351063
0.354999
0.358827
0.362549
0.36617
0.369692
0.373119
0.376454
0.379699
0.382857
0.385931
0.388923
0.391836
0.394671
0.397431
0.400117
0.402731
0.405275
0.407751
0.410159
0.4125
0.414775
0.416986
0.419131
0.421211
0.423226
0.425174
0.427054
0.428865
0.430605
0.43227
0.433858
0.435365
0.436787
0.438118
0.439355
0.44049
0.441517
0.442431
0.443222
0.443885
0.444411
0.444792
0.445018
0.445083
0.444976
0.44469
0.444214
0.443542
0.442663
0.441571
0.440256
0.438712
0.436932
0.434909
0.432637
0.430111
0.427326
0.424284
0.420957
0.417425
0.413426
0.409786
0.403905
0.403905
-0.000187534
0.000187534
0.00253635
0.00658088
0.0122109
0.0192313
0.0273566
0.0362847
0.0457513
0.0555485
0.0655222
0.075561
0.0855851
0.0955382
0.10538
0.115084
0.124629
0.134003
0.143195
0.152202
0.161018
0.169643
0.178075
0.186316
0.194365
0.202226
0.209899
0.217387
0.224694
0.231821
0.238773
0.245551
0.25216
0.258603
0.264884
0.271005
0.27697
0.282783
0.288447
0.293966
0.299343
0.304581
0.309684
0.314655
0.319497
0.324214
0.328808
0.333283
0.337641
0.341885
0.346018
0.350043
0.353961
0.357776
0.361489
0.365102
0.368617
0.372035
0.375357
0.378584
0.381715
0.384751
0.387692
0.390535
0.393279
0.395922
0.398461
0.400892
0.403212
0.405415
0.407496
0.409449
0.411268
0.412945
0.414472
0.415842
0.417046
0.418075
0.41892
0.419572
0.420021
0.420258
0.420274
0.42006
0.419606
0.418906
0.41795
0.416731
0.415243
0.41348
0.411437
0.409108
0.406492
0.403584
0.400383
0.396895
0.393096
0.389067
0.38455
0.380401
0.37385
0.37385
9.11926e-06
-9.11926e-06
0.000194127
0.000801507
0.00203892
0.00409543
0.00707416
0.010992
0.015805
0.0214344
0.0277857
0.0347594
0.0422575
0.0501873
0.0584631
0.0670073
0.0757507
0.0846324
0.0935993
0.102606
0.111612
0.120586
0.129498
0.138327
0.147051
0.155657
0.16413
0.172461
0.180642
0.188666
0.19653
0.20423
0.211764
0.219132
0.226333
0.233368
0.240237
0.246943
0.253487
0.259871
0.266098
0.272171
0.278092
0.283864
0.28949
0.294973
0.300316
0.305522
0.310594
0.315535
0.320347
0.325033
0.329595
0.334035
0.338356
0.342558
0.346643
0.350612
0.354464
0.358199
0.361818
0.365317
0.368696
0.371951
0.37508
0.378077
0.380938
0.383658
0.38623
0.388647
0.390902
0.392987
0.394893
0.39661
0.39813
0.399443
0.400538
0.401406
0.402036
0.402419
0.402546
0.402407
0.401993
0.401296
0.40031
0.399026
0.39744
0.395547
0.393343
0.390824
0.38799
0.38484
0.381375
0.377597
0.373507
0.369115
0.364407
0.359459
0.35404
0.348985
0.341417
0.341417
2.58893e-06
-2.58893e-06
1.40367e-05
0.000143873
0.000571454
0.00153022
0.00322002
0.00576194
0.00920072
0.0135245
0.0186837
0.0246047
0.0312006
0.0383787
0.0460463
0.0541147
0.0625013
0.0711311
0.0799374
0.0888615
0.0978524
0.106866
0.115866
0.12482
0.133702
0.142491
0.151167
0.159718
0.168131
0.176397
0.18451
0.192463
0.200253
0.207878
0.215336
0.222626
0.22975
0.236707
0.2435
0.250129
0.256597
0.262907
0.26906
0.27506
0.280909
0.28661
0.292166
0.297579
0.302854
0.307991
0.312994
0.317864
0.322605
0.327216
0.3317
0.336057
0.340288
0.344392
0.348369
0.352216
0.355933
0.359515
0.362959
0.366261
0.369415
0.372415
0.375255
0.377928
0.380423
0.382734
0.384851
0.386763
0.388461
0.389934
0.391171
0.392162
0.392897
0.393364
0.393554
0.393457
0.393065
0.392369
0.391362
0.390037
0.38839
0.386415
0.384109
0.381471
0.3785
0.375196
0.371561
0.367599
0.363314
0.358713
0.3538
0.348589
0.343073
0.337319
0.331145
0.325257
0.317062
0.317062
2.58893e-06
-2.58893e-06
1.40367e-05
0.000143873
0.000571454
0.00153022
0.00322002
0.00576194
0.00920072
0.0135245
0.0186837
0.0246047
0.0312006
0.0383787
0.0460463
0.0541147
0.0625013
0.0711311
0.0799374
0.0888615
0.0978524
0.106866
0.115866
0.12482
0.133702
0.142491
0.151167
0.159718
0.168131
0.176397
0.18451
0.192463
0.200253
0.207878
0.215336
0.222626
0.22975
0.236707
0.2435
0.250129
0.256597
0.262907
0.26906
0.27506
0.280909
0.28661
0.292166
0.297579
0.302854
0.307991
0.312994
0.317864
0.322605
0.327216
0.3317
0.336057
0.340288
0.344392
0.348369
0.352216
0.355933
0.359515
0.362959
0.366261
0.369415
0.372415
0.375255
0.377928
0.380423
0.382734
0.384851
0.386763
0.388461
0.389934
0.391171
0.392162
0.392897
0.393364
0.393554
0.393457
0.393065
0.392369
0.391362
0.390037
0.38839
0.386415
0.384109
0.381471
0.3785
0.375196
0.371561
0.367599
0.363314
0.358713
0.3538
0.348589
0.343073
0.337319
0.331145
0.325257
0.317062
0.317062
