# vtk DataFile Version 2.0
FlowField
ASCII
DATASET STRUCTURED_GRID
DIMENSIONS 102 1 12 
POINTS 1224 double
0 0 0
0.3 0 0
0.6 0 0
0.9 0 0
1.2 0 0
1.5 0 0
1.8 0 0
2.1 0 0
2.4 0 0
2.7 0 0
3 0 0
3.3 0 0
3.6 0 0
3.9 0 0
4.2 0 0
4.5 0 0
4.8 0 0
5.1 0 0
5.4 0 0
5.7 0 0
6 0 0
6.3 0 0
6.6 0 0
6.9 0 0
7.2 0 0
7.5 0 0
7.8 0 0
8.1 0 0
8.4 0 0
8.7 0 0
9 0 0
9.3 0 0
9.6 0 0
9.9 0 0
10.2 0 0
10.5 0 0
10.8 0 0
11.1 0 0
11.4 0 0
11.7 0 0
12 0 0
12.3 0 0
12.6 0 0
12.9 0 0
13.2 0 0
13.5 0 0
13.8 0 0
14.1 0 0
14.4 0 0
14.7 0 0
15 0 0
15.3 0 0
15.6 0 0
15.9 0 0
16.2 0 0
16.5 0 0
16.8 0 0
17.1 0 0
17.4 0 0
17.7 0 0
18 0 0
18.3 0 0
18.6 0 0
18.9 0 0
19.2 0 0
19.5 0 0
19.8 0 0
20.1 0 0
20.4 0 0
20.7 0 0
21 0 0
21.3 0 0
21.6 0 0
21.9 0 0
22.2 0 0
22.5 0 0
22.8 0 0
23.1 0 0
23.4 0 0
23.7 0 0
24 0 0
24.3 0 0
24.6 0 0
24.9 0 0
25.2 0 0
25.5 0 0
25.8 0 0
26.1 0 0
26.4 0 0
26.7 0 0
27 0 0
27.3 0 0
27.6 0 0
27.9 0 0
28.2 0 0
28.5 0 0
28.8 0 0
29.1 0 0
29.4 0 0
29.7 0 0
30 0 0
30.3 0 0
0 0.1 0
0.3 0.1 0
0.6 0.1 0
0.9 0.1 0
1.2 0.1 0
1.5 0.1 0
1.8 0.1 0
2.1 0.1 0
2.4 0.1 0
2.7 0.1 0
3 0.1 0
3.3 0.1 0
3.6 0.1 0
3.9 0.1 0
4.2 0.1 0
4.5 0.1 0
4.8 0.1 0
5.1 0.1 0
5.4 0.1 0
5.7 0.1 0
6 0.1 0
6.3 0.1 0
6.6 0.1 0
6.9 0.1 0
7.2 0.1 0
7.5 0.1 0
7.8 0.1 0
8.1 0.1 0
8.4 0.1 0
8.7 0.1 0
9 0.1 0
9.3 0.1 0
9.6 0.1 0
9.9 0.1 0
10.2 0.1 0
10.5 0.1 0
10.8 0.1 0
11.1 0.1 0
11.4 0.1 0
11.7 0.1 0
12 0.1 0
12.3 0.1 0
12.6 0.1 0
12.9 0.1 0
13.2 0.1 0
13.5 0.1 0
13.8 0.1 0
14.1 0.1 0
14.4 0.1 0
14.7 0.1 0
15 0.1 0
15.3 0.1 0
15.6 0.1 0
15.9 0.1 0
16.2 0.1 0
16.5 0.1 0
16.8 0.1 0
17.1 0.1 0
17.4 0.1 0
17.7 0.1 0
18 0.1 0
18.3 0.1 0
18.6 0.1 0
18.9 0.1 0
19.2 0.1 0
19.5 0.1 0
19.8 0.1 0
20.1 0.1 0
20.4 0.1 0
20.7 0.1 0
21 0.1 0
21.3 0.1 0
21.6 0.1 0
21.9 0.1 0
22.2 0.1 0
22.5 0.1 0
22.8 0.1 0
23.1 0.1 0
23.4 0.1 0
23.7 0.1 0
24 0.1 0
24.3 0.1 0
24.6 0.1 0
24.9 0.1 0
25.2 0.1 0
25.5 0.1 0
25.8 0.1 0
26.1 0.1 0
26.4 0.1 0
26.7 0.1 0
27 0.1 0
27.3 0.1 0
27.6 0.1 0
27.9 0.1 0
28.2 0.1 0
28.5 0.1 0
28.8 0.1 0
29.1 0.1 0
29.4 0.1 0
29.7 0.1 0
30 0.1 0
30.3 0.1 0
0 0.2 0
0.3 0.2 0
0.6 0.2 0
0.9 0.2 0
1.2 0.2 0
1.5 0.2 0
1.8 0.2 0
2.1 0.2 0
2.4 0.2 0
2.7 0.2 0
3 0.2 0
3.3 0.2 0
3.6 0.2 0
3.9 0.2 0
4.2 0.2 0
4.5 0.2 0
4.8 0.2 0
5.1 0.2 0
5.4 0.2 0
5.7 0.2 0
6 0.2 0
6.3 0.2 0
6.6 0.2 0
6.9 0.2 0
7.2 0.2 0
7.5 0.2 0
7.8 0.2 0
8.1 0.2 0
8.4 0.2 0
8.7 0.2 0
9 0.2 0
9.3 0.2 0
9.6 0.2 0
9.9 0.2 0
10.2 0.2 0
10.5 0.2 0
10.8 0.2 0
11.1 0.2 0
11.4 0.2 0
11.7 0.2 0
12 0.2 0
12.3 0.2 0
12.6 0.2 0
12.9 0.2 0
13.2 0.2 0
13.5 0.2 0
13.8 0.2 0
14.1 0.2 0
14.4 0.2 0
14.7 0.2 0
15 0.2 0
15.3 0.2 0
15.6 0.2 0
15.9 0.2 0
16.2 0.2 0
16.5 0.2 0
16.8 0.2 0
17.1 0.2 0
17.4 0.2 0
17.7 0.2 0
18 0.2 0
18.3 0.2 0
18.6 0.2 0
18.9 0.2 0
19.2 0.2 0
19.5 0.2 0
19.8 0.2 0
20.1 0.2 0
20.4 0.2 0
20.7 0.2 0
21 0.2 0
21.3 0.2 0
21.6 0.2 0
21.9 0.2 0
22.2 0.2 0
22.5 0.2 0
22.8 0.2 0
23.1 0.2 0
23.4 0.2 0
23.7 0.2 0
24 0.2 0
24.3 0.2 0
24.6 0.2 0
24.9 0.2 0
25.2 0.2 0
25.5 0.2 0
25.8 0.2 0
26.1 0.2 0
26.4 0.2 0
26.7 0.2 0
27 0.2 0
27.3 0.2 0
27.6 0.2 0
27.9 0.2 0
28.2 0.2 0
28.5 0.2 0
28.8 0.2 0
29.1 0.2 0
29.4 0.2 0
29.7 0.2 0
30 0.2 0
30.3 0.2 0
0 0.3 0
0.3 0.3 0
0.6 0.3 0
0.9 0.3 0
1.2 0.3 0
1.5 0.3 0
1.8 0.3 0
2.1 0.3 0
2.4 0.3 0
2.7 0.3 0
3 0.3 0
3.3 0.3 0
3.6 0.3 0
3.9 0.3 0
4.2 0.3 0
4.5 0.3 0
4.8 0.3 0
5.1 0.3 0
5.4 0.3 0
5.7 0.3 0
6 0.3 0
6.3 0.3 0
6.6 0.3 0
6.9 0.3 0
7.2 0.3 0
7.5 0.3 0
7.8 0.3 0
8.1 0.3 0
8.4 0.3 0
8.7 0.3 0
9 0.3 0
9.3 0.3 0
9.6 0.3 0
9.9 0.3 0
10.2 0.3 0
10.5 0.3 0
10.8 0.3 0
11.1 0.3 0
11.4 0.3 0
11.7 0.3 0
12 0.3 0
12.3 0.3 0
12.6 0.3 0
12.9 0.3 0
13.2 0.3 0
13.5 0.3 0
13.8 0.3 0
14.1 0.3 0
14.4 0.3 0
14.7 0.3 0
15 0.3 0
15.3 0.3 0
15.6 0.3 0
15.9 0.3 0
16.2 0.3 0
16.5 0.3 0
16.8 0.3 0
17.1 0.3 0
17.4 0.3 0
17.7 0.3 0
18 0.3 0
18.3 0.3 0
18.6 0.3 0
18.9 0.3 0
19.2 0.3 0
19.5 0.3 0
19.8 0.3 0
20.1 0.3 0
20.4 0.3 0
20.7 0.3 0
21 0.3 0
21.3 0.3 0
21.6 0.3 0
21.9 0.3 0
22.2 0.3 0
22.5 0.3 0
22.8 0.3 0
23.1 0.3 0
23.4 0.3 0
23.7 0.3 0
24 0.3 0
24.3 0.3 0
24.6 0.3 0
24.9 0.3 0
25.2 0.3 0
25.5 0.3 0
25.8 0.3 0
26.1 0.3 0
26.4 0.3 0
26.7 0.3 0
27 0.3 0
27.3 0.3 0
27.6 0.3 0
27.9 0.3 0
28.2 0.3 0
28.5 0.3 0
28.8 0.3 0
29.1 0.3 0
29.4 0.3 0
29.7 0.3 0
30 0.3 0
30.3 0.3 0
0 0.4 0
0.3 0.4 0
0.6 0.4 0
0.9 0.4 0
1.2 0.4 0
1.5 0.4 0
1.8 0.4 0
2.1 0.4 0
2.4 0.4 0
2.7 0.4 0
3 0.4 0
3.3 0.4 0
3.6 0.4 0
3.9 0.4 0
4.2 0.4 0
4.5 0.4 0
4.8 0.4 0
5.1 0.4 0
5.4 0.4 0
5.7 0.4 0
6 0.4 0
6.3 0.4 0
6.6 0.4 0
6.9 0.4 0
7.2 0.4 0
7.5 0.4 0
7.8 0.4 0
8.1 0.4 0
8.4 0.4 0
8.7 0.4 0
9 0.4 0
9.3 0.4 0
9.6 0.4 0
9.9 0.4 0
10.2 0.4 0
10.5 0.4 0
10.8 0.4 0
11.1 0.4 0
11.4 0.4 0
11.7 0.4 0
12 0.4 0
12.3 0.4 0
12.6 0.4 0
12.9 0.4 0
13.2 0.4 0
13.5 0.4 0
13.8 0.4 0
14.1 0.4 0
14.4 0.4 0
14.7 0.4 0
15 0.4 0
15.3 0.4 0
15.6 0.4 0
15.9 0.4 0
16.2 0.4 0
16.5 0.4 0
16.8 0.4 0
17.1 0.4 0
17.4 0.4 0
17.7 0.4 0
18 0.4 0
18.3 0.4 0
18.6 0.4 0
18.9 0.4 0
19.2 0.4 0
19.5 0.4 0
19.8 0.4 0
20.1 0.4 0
20.4 0.4 0
20.7 0.4 0
21 0.4 0
21.3 0.4 0
21.6 0.4 0
21.9 0.4 0
22.2 0.4 0
22.5 0.4 0
22.8 0.4 0
23.1 0.4 0
23.4 0.4 0
23.7 0.4 0
24 0.4 0
24.3 0.4 0
24.6 0.4 0
24.9 0.4 0
25.2 0.4 0
25.5 0.4 0
25.8 0.4 0
26.1 0.4 0
26.4 0.4 0
26.7 0.4 0
27 0.4 0
27.3 0.4 0
27.6 0.4 0
27.9 0.4 0
28.2 0.4 0
28.5 0.4 0
28.8 0.4 0
29.1 0.4 0
29.4 0.4 0
29.7 0.4 0
30 0.4 0
30.3 0.4 0
0 0.5 0
0.3 0.5 0
0.6 0.5 0
0.9 0.5 0
1.2 0.5 0
1.5 0.5 0
1.8 0.5 0
2.1 0.5 0
2.4 0.5 0
2.7 0.5 0
3 0.5 0
3.3 0.5 0
3.6 0.5 0
3.9 0.5 0
4.2 0.5 0
4.5 0.5 0
4.8 0.5 0
5.1 0.5 0
5.4 0.5 0
5.7 0.5 0
6 0.5 0
6.3 0.5 0
6.6 0.5 0
6.9 0.5 0
7.2 0.5 0
7.5 0.5 0
7.8 0.5 0
8.1 0.5 0
8.4 0.5 0
8.7 0.5 0
9 0.5 0
9.3 0.5 0
9.6 0.5 0
9.9 0.5 0
10.2 0.5 0
10.5 0.5 0
10.8 0.5 0
11.1 0.5 0
11.4 0.5 0
11.7 0.5 0
12 0.5 0
12.3 0.5 0
12.6 0.5 0
12.9 0.5 0
13.2 0.5 0
13.5 0.5 0
13.8 0.5 0
14.1 0.5 0
14.4 0.5 0
14.7 0.5 0
15 0.5 0
15.3 0.5 0
15.6 0.5 0
15.9 0.5 0
16.2 0.5 0
16.5 0.5 0
16.8 0.5 0
17.1 0.5 0
17.4 0.5 0
17.7 0.5 0
18 0.5 0
18.3 0.5 0
18.6 0.5 0
18.9 0.5 0
19.2 0.5 0
19.5 0.5 0
19.8 0.5 0
20.1 0.5 0
20.4 0.5 0
20.7 0.5 0
21 0.5 0
21.3 0.5 0
21.6 0.5 0
21.9 0.5 0
22.2 0.5 0
22.5 0.5 0
22.8 0.5 0
23.1 0.5 0
23.4 0.5 0
23.7 0.5 0
24 0.5 0
24.3 0.5 0
24.6 0.5 0
24.9 0.5 0
25.2 0.5 0
25.5 0.5 0
25.8 0.5 0
26.1 0.5 0
26.4 0.5 0
26.7 0.5 0
27 0.5 0
27.3 0.5 0
27.6 0.5 0
27.9 0.5 0
28.2 0.5 0
28.5 0.5 0
28.8 0.5 0
29.1 0.5 0
29.4 0.5 0
29.7 0.5 0
30 0.5 0
30.3 0.5 0
0 0.6 0
0.3 0.6 0
0.6 0.6 0
0.9 0.6 0
1.2 0.6 0
1.5 0.6 0
1.8 0.6 0
2.1 0.6 0
2.4 0.6 0
2.7 0.6 0
3 0.6 0
3.3 0.6 0
3.6 0.6 0
3.9 0.6 0
4.2 0.6 0
4.5 0.6 0
4.8 0.6 0
5.1 0.6 0
5.4 0.6 0
5.7 0.6 0
6 0.6 0
6.3 0.6 0
6.6 0.6 0
6.9 0.6 0
7.2 0.6 0
7.5 0.6 0
7.8 0.6 0
8.1 0.6 0
8.4 0.6 0
8.7 0.6 0
9 0.6 0
9.3 0.6 0
9.6 0.6 0
9.9 0.6 0
10.2 0.6 0
10.5 0.6 0
10.8 0.6 0
11.1 0.6 0
11.4 0.6 0
11.7 0.6 0
12 0.6 0
12.3 0.6 0
12.6 0.6 0
12.9 0.6 0
13.2 0.6 0
13.5 0.6 0
13.8 0.6 0
14.1 0.6 0
14.4 0.6 0
14.7 0.6 0
15 0.6 0
15.3 0.6 0
15.6 0.6 0
15.9 0.6 0
16.2 0.6 0
16.5 0.6 0
16.8 0.6 0
17.1 0.6 0
17.4 0.6 0
17.7 0.6 0
18 0.6 0
18.3 0.6 0
18.6 0.6 0
18.9 0.6 0
19.2 0.6 0
19.5 0.6 0
19.8 0.6 0
20.1 0.6 0
20.4 0.6 0
20.7 0.6 0
21 0.6 0
21.3 0.6 0
21.6 0.6 0
21.9 0.6 0
22.2 0.6 0
22.5 0.6 0
22.8 0.6 0
23.1 0.6 0
23.4 0.6 0
23.7 0.6 0
24 0.6 0
24.3 0.6 0
24.6 0.6 0
24.9 0.6 0
25.2 0.6 0
25.5 0.6 0
25.8 0.6 0
26.1 0.6 0
26.4 0.6 0
26.7 0.6 0
27 0.6 0
27.3 0.6 0
27.6 0.6 0
27.9 0.6 0
28.2 0.6 0
28.5 0.6 0
28.8 0.6 0
29.1 0.6 0
29.4 0.6 0
29.7 0.6 0
30 0.6 0
30.3 0.6 0
0 0.7 0
0.3 0.7 0
0.6 0.7 0
0.9 0.7 0
1.2 0.7 0
1.5 0.7 0
1.8 0.7 0
2.1 0.7 0
2.4 0.7 0
2.7 0.7 0
3 0.7 0
3.3 0.7 0
3.6 0.7 0
3.9 0.7 0
4.2 0.7 0
4.5 0.7 0
4.8 0.7 0
5.1 0.7 0
5.4 0.7 0
5.7 0.7 0
6 0.7 0
6.3 0.7 0
6.6 0.7 0
6.9 0.7 0
7.2 0.7 0
7.5 0.7 0
7.8 0.7 0
8.1 0.7 0
8.4 0.7 0
8.7 0.7 0
9 0.7 0
9.3 0.7 0
9.6 0.7 0
9.9 0.7 0
10.2 0.7 0
10.5 0.7 0
10.8 0.7 0
11.1 0.7 0
11.4 0.7 0
11.7 0.7 0
12 0.7 0
12.3 0.7 0
12.6 0.7 0
12.9 0.7 0
13.2 0.7 0
13.5 0.7 0
13.8 0.7 0
14.1 0.7 0
14.4 0.7 0
14.7 0.7 0
15 0.7 0
15.3 0.7 0
15.6 0.7 0
15.9 0.7 0
16.2 0.7 0
16.5 0.7 0
16.8 0.7 0
17.1 0.7 0
17.4 0.7 0
17.7 0.7 0
18 0.7 0
18.3 0.7 0
18.6 0.7 0
18.9 0.7 0
19.2 0.7 0
19.5 0.7 0
19.8 0.7 0
20.1 0.7 0
20.4 0.7 0
20.7 0.7 0
21 0.7 0
21.3 0.7 0
21.6 0.7 0
21.9 0.7 0
22.2 0.7 0
22.5 0.7 0
22.8 0.7 0
23.1 0.7 0
23.4 0.7 0
23.7 0.7 0
24 0.7 0
24.3 0.7 0
24.6 0.7 0
24.9 0.7 0
25.2 0.7 0
25.5 0.7 0
25.8 0.7 0
26.1 0.7 0
26.4 0.7 0
26.7 0.7 0
27 0.7 0
27.3 0.7 0
27.6 0.7 0
27.9 0.7 0
28.2 0.7 0
28.5 0.7 0
28.8 0.7 0
29.1 0.7 0
29.4 0.7 0
29.7 0.7 0
30 0.7 0
30.3 0.7 0
0 0.8 0
0.3 0.8 0
0.6 0.8 0
0.9 0.8 0
1.2 0.8 0
1.5 0.8 0
1.8 0.8 0
2.1 0.8 0
2.4 0.8 0
2.7 0.8 0
3 0.8 0
3.3 0.8 0
3.6 0.8 0
3.9 0.8 0
4.2 0.8 0
4.5 0.8 0
4.8 0.8 0
5.1 0.8 0
5.4 0.8 0
5.7 0.8 0
6 0.8 0
6.3 0.8 0
6.6 0.8 0
6.9 0.8 0
7.2 0.8 0
7.5 0.8 0
7.8 0.8 0
8.1 0.8 0
8.4 0.8 0
8.7 0.8 0
9 0.8 0
9.3 0.8 0
9.6 0.8 0
9.9 0.8 0
10.2 0.8 0
10.5 0.8 0
10.8 0.8 0
11.1 0.8 0
11.4 0.8 0
11.7 0.8 0
12 0.8 0
12.3 0.8 0
12.6 0.8 0
12.9 0.8 0
13.2 0.8 0
13.5 0.8 0
13.8 0.8 0
14.1 0.8 0
14.4 0.8 0
14.7 0.8 0
15 0.8 0
15.3 0.8 0
15.6 0.8 0
15.9 0.8 0
16.2 0.8 0
16.5 0.8 0
16.8 0.8 0
17.1 0.8 0
17.4 0.8 0
17.7 0.8 0
18 0.8 0
18.3 0.8 0
18.6 0.8 0
18.9 0.8 0
19.2 0.8 0
19.5 0.8 0
19.8 0.8 0
20.1 0.8 0
20.4 0.8 0
20.7 0.8 0
21 0.8 0
21.3 0.8 0
21.6 0.8 0
21.9 0.8 0
22.2 0.8 0
22.5 0.8 0
22.8 0.8 0
23.1 0.8 0
23.4 0.8 0
23.7 0.8 0
24 0.8 0
24.3 0.8 0
24.6 0.8 0
24.9 0.8 0
25.2 0.8 0
25.5 0.8 0
25.8 0.8 0
26.1 0.8 0
26.4 0.8 0
26.7 0.8 0
27 0.8 0
27.3 0.8 0
27.6 0.8 0
27.9 0.8 0
28.2 0.8 0
28.5 0.8 0
28.8 0.8 0
29.1 0.8 0
29.4 0.8 0
29.7 0.8 0
30 0.8 0
30.3 0.8 0
0 0.9 0
0.3 0.9 0
0.6 0.9 0
0.9 0.9 0
1.2 0.9 0
1.5 0.9 0
1.8 0.9 0
2.1 0.9 0
2.4 0.9 0
2.7 0.9 0
3 0.9 0
3.3 0.9 0
3.6 0.9 0
3.9 0.9 0
4.2 0.9 0
4.5 0.9 0
4.8 0.9 0
5.1 0.9 0
5.4 0.9 0
5.7 0.9 0
6 0.9 0
6.3 0.9 0
6.6 0.9 0
6.9 0.9 0
7.2 0.9 0
7.5 0.9 0
7.8 0.9 0
8.1 0.9 0
8.4 0.9 0
8.7 0.9 0
9 0.9 0
9.3 0.9 0
9.6 0.9 0
9.9 0.9 0
10.2 0.9 0
10.5 0.9 0
10.8 0.9 0
11.1 0.9 0
11.4 0.9 0
11.7 0.9 0
12 0.9 0
12.3 0.9 0
12.6 0.9 0
12.9 0.9 0
13.2 0.9 0
13.5 0.9 0
13.8 0.9 0
14.1 0.9 0
14.4 0.9 0
14.7 0.9 0
15 0.9 0
15.3 0.9 0
15.6 0.9 0
15.9 0.9 0
16.2 0.9 0
16.5 0.9 0
16.8 0.9 0
17.1 0.9 0
17.4 0.9 0
17.7 0.9 0
18 0.9 0
18.3 0.9 0
18.6 0.9 0
18.9 0.9 0
19.2 0.9 0
19.5 0.9 0
19.8 0.9 0
20.1 0.9 0
20.4 0.9 0
20.7 0.9 0
21 0.9 0
21.3 0.9 0
21.6 0.9 0
21.9 0.9 0
22.2 0.9 0
22.5 0.9 0
22.8 0.9 0
23.1 0.9 0
23.4 0.9 0
23.7 0.9 0
24 0.9 0
24.3 0.9 0
24.6 0.9 0
24.9 0.9 0
25.2 0.9 0
25.5 0.9 0
25.8 0.9 0
26.1 0.9 0
26.4 0.9 0
26.7 0.9 0
27 0.9 0
27.3 0.9 0
27.6 0.9 0
27.9 0.9 0
28.2 0.9 0
28.5 0.9 0
28.8 0.9 0
29.1 0.9 0
29.4 0.9 0
29.7 0.9 0
30 0.9 0
30.3 0.9 0
0 1 0
0.3 1 0
0.6 1 0
0.9 1 0
1.2 1 0
1.5 1 0
1.8 1 0
2.1 1 0
2.4 1 0
2.7 1 0
3 1 0
3.3 1 0
3.6 1 0
3.9 1 0
4.2 1 0
4.5 1 0
4.8 1 0
5.1 1 0
5.4 1 0
5.7 1 0
6 1 0
6.3 1 0
6.6 1 0
6.9 1 0
7.2 1 0
7.5 1 0
7.8 1 0
8.1 1 0
8.4 1 0
8.7 1 0
9 1 0
9.3 1 0
9.6 1 0
9.9 1 0
10.2 1 0
10.5 1 0
10.8 1 0
11.1 1 0
11.4 1 0
11.7 1 0
12 1 0
12.3 1 0
12.6 1 0
12.9 1 0
13.2 1 0
13.5 1 0
13.8 1 0
14.1 1 0
14.4 1 0
14.7 1 0
15 1 0
15.3 1 0
15.6 1 0
15.9 1 0
16.2 1 0
16.5 1 0
16.8 1 0
17.1 1 0
17.4 1 0
17.7 1 0
18 1 0
18.3 1 0
18.6 1 0
18.9 1 0
19.2 1 0
19.5 1 0
19.8 1 0
20.1 1 0
20.4 1 0
20.7 1 0
21 1 0
21.3 1 0
21.6 1 0
21.9 1 0
22.2 1 0
22.5 1 0
22.8 1 0
23.1 1 0
23.4 1 0
23.7 1 0
24 1 0
24.3 1 0
24.6 1 0
24.9 1 0
25.2 1 0
25.5 1 0
25.8 1 0
26.1 1 0
26.4 1 0
26.7 1 0
27 1 0
27.3 1 0
27.6 1 0
27.9 1 0
28.2 1 0
28.5 1 0
28.8 1 0
29.1 1 0
29.4 1 0
29.7 1 0
30 1 0
30.3 1 0
0 1.1 0
0.3 1.1 0
0.6 1.1 0
0.9 1.1 0
1.2 1.1 0
1.5 1.1 0
1.8 1.1 0
2.1 1.1 0
2.4 1.1 0
2.7 1.1 0
3 1.1 0
3.3 1.1 0
3.6 1.1 0
3.9 1.1 0
4.2 1.1 0
4.5 1.1 0
4.8 1.1 0
5.1 1.1 0
5.4 1.1 0
5.7 1.1 0
6 1.1 0
6.3 1.1 0
6.6 1.1 0
6.9 1.1 0
7.2 1.1 0
7.5 1.1 0
7.8 1.1 0
8.1 1.1 0
8.4 1.1 0
8.7 1.1 0
9 1.1 0
9.3 1.1 0
9.6 1.1 0
9.9 1.1 0
10.2 1.1 0
10.5 1.1 0
10.8 1.1 0
11.1 1.1 0
11.4 1.1 0
11.7 1.1 0
12 1.1 0
12.3 1.1 0
12.6 1.1 0
12.9 1.1 0
13.2 1.1 0
13.5 1.1 0
13.8 1.1 0
14.1 1.1 0
14.4 1.1 0
14.7 1.1 0
15 1.1 0
15.3 1.1 0
15.6 1.1 0
15.9 1.1 0
16.2 1.1 0
16.5 1.1 0
16.8 1.1 0
17.1 1.1 0
17.4 1.1 0
17.7 1.1 0
18 1.1 0
18.3 1.1 0
18.6 1.1 0
18.9 1.1 0
19.2 1.1 0
19.5 1.1 0
19.8 1.1 0
20.1 1.1 0
20.4 1.1 0
20.7 1.1 0
21 1.1 0
21.3 1.1 0
21.6 1.1 0
21.9 1.1 0
22.2 1.1 0
22.5 1.1 0
22.8 1.1 0
23.1 1.1 0
23.4 1.1 0
23.7 1.1 0
24 1.1 0
24.3 1.1 0
24.6 1.1 0
24.9 1.1 0
25.2 1.1 0
25.5 1.1 0
25.8 1.1 0
26.1 1.1 0
26.4 1.1 0
26.7 1.1 0
27 1.1 0
27.3 1.1 0
27.6 1.1 0
27.9 1.1 0
28.2 1.1 0
28.5 1.1 0
28.8 1.1 0
29.1 1.1 0
29.4 1.1 0
29.7 1.1 0
30 1.1 0
30.3 1.1 0

POINT_DATA 1224

SCALARS phi double
LOOKUP_TABLE default
0.999997
1
0.999986
0.999856
0.999428
0.99847
0.99678
0.994238
0.990799
0.986475
0.981316
0.975395
0.968799
0.961621
0.953953
0.945885
0.937499
0.92887
0.920061
0.911118
0.902067
0.892907
0.883606
0.874103
0.864312
0.854121
0.843412
0.83206
0.819951
0.806986
0.793091
0.778215
0.76234
0.745475
0.727655
0.708939
0.689404
0.669142
0.648258
0.626858
0.605056
0.582962
0.560683
0.538321
0.515971
0.493722
0.471651
0.449829
0.428317
0.407169
0.386429
0.366134
0.346316
0.326998
0.308201
0.289939
0.272223
0.25506
0.238456
0.222415
0.206938
0.192026
0.177681
0.163904
0.150695
0.138058
0.125996
0.114511
0.10361
0.0932978
0.0835802
0.0744631
0.0659512
0.0580477
0.0507534
0.0440656
0.037978
0.0324793
0.0275534
0.0231792
0.0193305
0.0159766
0.0130831
0.0106125
0.00852529
0.00678116
0.00533982
0.00416209
0.00321072
0.00245106
0.0018515
0.00138383
0.0010233
0.000748634
0.000541833
0.00038796
0.000274802
0.000192593
0.000133386
9.21411e-05
5.90938e-05
5.90938e-05
0.999997
1
0.999986
0.999856
0.999428
0.99847
0.99678
0.994238
0.990799
0.986475
0.981316
0.975395
0.968799
0.961621
0.953953
0.945885
0.937499
0.92887
0.920061
0.911118
0.902067
0.892907
0.883606
0.874103
0.864312
0.854121
0.843412
0.83206
0.819951
0.806986
0.793091
0.778215
0.76234
0.745475
0.727655
0.708939
0.689404
0.669142
0.648258
0.626858
0.605056
0.582962
0.560683
0.538321
0.515971
0.493722
0.471651
0.449829
0.428317
0.407169
0.386429
0.366134
0.346316
0.326998
0.308201
0.289939
0.272223
0.25506
0.238456
0.222415
0.206938
0.192026
0.177681
0.163904
0.150695
0.138058
0.125996
0.114511
0.10361
0.0932978
0.0835802
0.0744631
0.0659512
0.0580477
0.0507534
0.0440656
0.037978
0.0324793
0.0275534
0.0231792
0.0193305
0.0159766
0.0130831
0.0106125
0.00852529
0.00678116
0.00533982
0.00416209
0.00321072
0.00245106
0.0018515
0.00138383
0.0010233
0.000748634
0.000541833
0.00038796
0.000274802
0.000192593
0.000133386
9.21411e-05
5.90938e-05
5.90938e-05
0.999991
1.00001
0.999806
0.999198
0.997961
0.995904
0.992926
0.989008
0.984195
0.978565
0.972214
0.96524
0.957742
0.949812
0.941536
0.932992
0.924249
0.915368
0.906401
0.897391
0.888368
0.879346
0.870322
0.861272
0.852149
0.842889
0.833408
0.823613
0.813402
0.802679
0.791353
0.779345
0.766596
0.753065
0.738732
0.723599
0.707686
0.691032
0.67369
0.655724
0.637207
0.618221
0.598846
0.579168
0.559268
0.539228
0.519123
0.499024
0.478997
0.459101
0.43939
0.41991
0.400703
0.381804
0.363243
0.345046
0.327233
0.309822
0.292826
0.276255
0.260119
0.244423
0.229172
0.214369
0.200018
0.18612
0.172678
0.159694
0.147172
0.135118
0.123539
0.112445
0.101846
0.0917578
0.0821958
0.0731767
0.0647174
0.0568333
0.049537
0.0428371
0.0367367
0.0312324
0.0263137
0.0219628
0.0181549
0.0148588
0.0120381
0.00965213
0.00765774
0.00601069
0.00466701
0.00358424
0.00272248
0.0020451
0.00151923
0.00111605
0.000810726
0.000582496
0.000413287
0.000292806
0.000191277
0.000191277
1.00019
0.999812
0.997464
0.993419
0.987789
0.980769
0.972643
0.963715
0.954249
0.944451
0.934478
0.924439
0.914415
0.904462
0.894619
0.884916
0.875371
0.865997
0.856805
0.847798
0.838979
0.830345
0.821887
0.813589
0.805425
0.797359
0.789346
0.781327
0.773238
0.765007
0.75656
0.747821
0.738721
0.729195
0.719188
0.708658
0.697572
0.685911
0.673671
0.660855
0.647482
0.633578
0.619178
0.604321
0.589055
0.573427
0.557489
0.541293
0.52489
0.508328
0.491657
0.474921
0.458162
0.441419
0.424728
0.40812
0.391623
0.375264
0.359065
0.343045
0.327221
0.311606
0.296214
0.281054
0.266132
0.251455
0.237027
0.222852
0.208931
0.19527
0.181873
0.168749
0.155913
0.143383
0.131185
0.119352
0.107923
0.096943
0.0864603
0.0765241
0.067182
0.0584768
0.0504435
0.0431069
0.0364798
0.0305621
0.0253405
0.0207893
0.0168719
0.0135428
0.01075
0.00843745
0.00654746
0.005023
0.00380942
0.00285594
0.00211645
0.00155082
0.0011215
0.000810336
0.000538627
0.000538627
1.00542
0.994581
0.97508
0.954125
0.933452
0.913655
0.895039
0.877742
0.861776
0.84707
0.833512
0.820982
0.809362
0.798543
0.78843
0.77894
0.770002
0.761554
0.753544
0.745926
0.738661
0.731716
0.725058
0.71866
0.712493
0.706529
0.700734
0.695074
0.689511
0.684
0.678496
0.672946
0.667301
0.661507
0.655511
0.649267
0.642727
0.635851
0.628605
0.620961
0.612898
0.604401
0.595463
0.586083
0.576266
0.566021
0.555364
0.544312
0.532887
0.521112
0.509012
0.496612
0.48394
0.471022
0.457883
0.444549
0.431045
0.417393
0.403616
0.389735
0.375771
0.361741
0.347661
0.333549
0.319415
0.305272
0.291129
0.276992
0.262867
0.248759
0.234672
0.220613
0.206596
0.192638
0.178767
0.165021
0.15145
0.138115
0.12509
0.112454
0.100295
0.0886974
0.0777446
0.0675099
0.0580536
0.0494197
0.0416335
0.0347006
0.0286073
0.0233225
0.0188
0.0149819
0.011802
0.00918941
0.00707192
0.0053789
0.0040432
0.0030045
0.00220268
0.00161397
0.00108721
0.00108721
1.08202
0.91798
0.823015
0.765284
0.727175
0.700189
0.68008
0.66452
0.652111
0.641957
0.633457
0.626199
0.619896
0.614339
0.609379
0.604903
0.600826
0.597084
0.593624
0.590405
0.587396
0.584568
0.5819
0.579372
0.576968
0.574671
0.572466
0.570338
0.568269
0.56624
0.564231
0.562216
0.56017
0.558063
0.555866
0.553546
0.551069
0.548402
0.545512
0.542368
0.538939
0.535197
0.531117
0.526676
0.521856
0.516641
0.511018
0.504977
0.498513
0.491621
0.4843
0.476554
0.468385
0.4598
0.450806
0.441414
0.431636
0.421482
0.410968
0.400109
0.388921
0.37742
0.365623
0.353548
0.34121
0.328626
0.315808
0.30277
0.289521
0.276071
0.262428
0.248604
0.234611
0.220471
0.206213
0.191878
0.177522
0.163215
0.149043
0.135104
0.121506
0.108361
0.0957835
0.0838782
0.0727394
0.062444
0.0530479
0.0445836
0.0370599
0.0304622
0.0247554
0.019887
0.015791
0.0123923
0.00961107
0.0073664
0.00557918
0.00417701
0.00308474
0.00227718
0.00154525
0.00154525
-0.0820204
0.0820204
0.176985
0.234716
0.272825
0.299811
0.31992
0.33548
0.347889
0.358044
0.366543
0.373801
0.380104
0.385661
0.390621
0.395097
0.399174
0.402916
0.406376
0.409595
0.412604
0.415432
0.418099
0.420625
0.423024
0.425309
0.427489
0.429573
0.431564
0.433466
0.43528
0.437001
0.438626
0.440145
0.441548
0.44282
0.443944
0.444901
0.445668
0.446223
0.44654
0.446592
0.446352
0.445793
0.444887
0.443607
0.441929
0.439827
0.437279
0.434266
0.430768
0.426771
0.422262
0.417232
0.411674
0.405586
0.398967
0.39182
0.384152
0.375973
0.367295
0.358133
0.348504
0.338427
0.327921
0.317007
0.305703
0.29403
0.282005
0.269645
0.256967
0.243992
0.230742
0.217246
0.203544
0.189685
0.175733
0.161767
0.14788
0.134178
0.120774
0.107788
0.0953384
0.0835356
0.0724781
0.0622465
0.0529
0.0444739
0.0369793
0.0304035
0.0247132
0.0198568
0.0157697
0.0123774
0.00960075
0.00735932
0.00557438
0.00417378
0.0030826
0.00227575
0.00154438
0.00154438
-0.00541873
0.00541873
0.0249201
0.0458753
0.0665479
0.086345
0.104961
0.122258
0.138224
0.15293
0.166488
0.179018
0.190638
0.201457
0.21157
0.22106
0.229998
0.238446
0.246456
0.254074
0.261338
0.268283
0.274936
0.281323
0.287464
0.293378
0.299082
0.304587
0.309906
0.315046
0.320015
0.324814
0.329447
0.33391
0.338199
0.342305
0.346218
0.349923
0.353402
0.356635
0.359597
0.362263
0.364605
0.366592
0.368196
0.369383
0.370125
0.37039
0.37015
0.369379
0.368053
0.366151
0.363655
0.360553
0.356834
0.352495
0.347534
0.341956
0.33577
0.328989
0.321629
0.313711
0.305259
0.296299
0.286858
0.276964
0.266648
0.255939
0.244865
0.233457
0.221745
0.209762
0.197547
0.185143
0.172602
0.159987
0.14737
0.134834
0.122472
0.110383
0.0986691
0.0874324
0.0767689
0.0667639
0.0574885
0.0489955
0.0413181
0.0344682
0.0284377
0.0232
0.0187123
0.0149198
0.0117584
0.00915912
0.00705109
0.00536471
0.00403363
0.00299811
0.00219847
0.00161118
0.00108553
0.00108553
-0.000187534
0.000187534
0.00253635
0.00658089
0.0122109
0.0192313
0.0273566
0.0362848
0.0457513
0.0555485
0.0655222
0.075561
0.0855851
0.0955383
0.105381
0.115084
0.124629
0.134003
0.143195
0.152202
0.161018
0.169643
0.178075
0.186315
0.194364
0.202222
0.209891
0.217372
0.224663
0.231764
0.238673
0.245384
0.251891
0.258185
0.264253
0.27008
0.275648
0.280935
0.285917
0.290567
0.294855
0.29875
0.30222
0.305232
0.307752
0.309748
0.311188
0.312045
0.312293
0.311909
0.310876
0.309179
0.306811
0.303767
0.300051
0.29567
0.290637
0.284969
0.27869
0.271828
0.264414
0.256482
0.248071
0.239219
0.229969
0.220363
0.210441
0.200249
0.189827
0.179221
0.168476
0.157638
0.146759
0.135894
0.125102
0.114447
0.103998
0.0938267
0.0840058
0.0746067
0.0656967
0.0573361
0.0495751
0.0424517
0.0359899
0.0301992
0.0250741
0.0205956
0.0167324
0.0134433
0.0106797
0.00838829
0.00651341
0.00499964
0.00379355
0.00284527
0.00210935
0.00154613
0.00111845
0.000808345
0.000537436
0.000537436
9.11927e-06
-9.11927e-06
0.000194127
0.000801508
0.00203892
0.00409543
0.00707417
0.010992
0.015805
0.0214344
0.0277857
0.0347594
0.0422576
0.0501874
0.0584631
0.0670073
0.0757507
0.0846324
0.0935993
0.102606
0.111612
0.120586
0.129498
0.138325
0.147046
0.155643
0.164101
0.172405
0.180539
0.188488
0.196236
0.203762
0.211048
0.218068
0.224797
0.231205
0.237262
0.242933
0.248183
0.252975
0.257272
0.261038
0.264237
0.266835
0.2688
0.270106
0.270729
0.27065
0.269856
0.268341
0.266102
0.263145
0.259482
0.255129
0.25011
0.244454
0.238197
0.231376
0.224036
0.216223
0.207988
0.199381
0.190456
0.181268
0.171871
0.16232
0.15267
0.142974
0.133286
0.123657
0.114142
0.104791
0.0956555
0.0867863
0.0782323
0.0700406
0.062255
0.0549151
0.0480548
0.0417013
0.0358736
0.0305821
0.025828
0.0216033
0.0178912
0.0146671
0.0119
0.00955359
0.00758808
0.00596191
0.00463318
0.003561
0.00270667
0.00203444
0.00151212
0.00111135
0.000807649
0.000580501
0.000412007
0.000291987
0.000190794
0.000190794
2.58893e-06
-2.58893e-06
1.40367e-05
0.000143873
0.000571454
0.00153022
0.00322002
0.00576195
0.00920072
0.0135245
0.0186837
0.0246047
0.0312006
0.0383787
0.0460463
0.0541147
0.0625013
0.0711312
0.0799375
0.0888616
0.0978523
0.106866
0.115864
0.124813
0.133685
0.142453
0.151093
0.15958
0.167891
0.175998
0.183875
0.191492
0.198816
0.205811
0.21244
0.218663
0.22444
0.229727
0.234483
0.238666
0.242237
0.245158
0.247398
0.248927
0.24972
0.249762
0.249039
0.247549
0.245292
0.24228
0.23853
0.234064
0.228913
0.223114
0.21671
0.209747
0.202276
0.194354
0.186038
0.177388
0.168466
0.159335
0.150057
0.140695
0.131312
0.121968
0.112721
0.10363
0.0947493
0.0861308
0.0778233
0.0698716
0.0623158
0.0551907
0.0485252
0.0423414
0.0366543
0.0314713
0.0267922
0.0226091
0.0189071
0.015665
0.0128557
0.010448
0.00840743
0.00669744
0.00528089
0.004121
0.00318233
0.00243163
0.00183832
0.00137498
0.00101741
0.000744749
0.000539296
0.000386319
0.00027375
0.000191926
0.000132967
9.18782e-05
5.89409e-05
5.89409e-05
2.58893e-06
-2.58893e-06
1.40367e-05
0.000143873
0.000571454
0.00153022
0.00322002
0.00576195
0.00920072
0.0135245
0.0186837
0.0246047
0.0312006
0.0383787
0.0460463
0.0541147
0.0625013
0.0711312
0.0799375
0.0888616
0.0978523
0.106866
0.115864
0.124813
0.133685
0.142453
0.151093
0.15958
0.167891
0.175998
0.183875
0.191492
0.198816
0.205811
0.21244
0.218663
0.22444
0.229727
0.234483
0.238666
0.242237
0.245158
0.247398
0.248927
0.24972
0.249762
0.249039
0.247549
0.245292
0.24228
0.23853
0.234064
0.228913
0.223114
0.21671
0.209747
0.202276
0.194354
0.186038
0.177388
0.168466
0.159335
0.150057
0.140695
0.131312
0.121968
0.112721
0.10363
0.0947493
0.0861308
0.0778233
0.0698716
0.0623158
0.0551907
0.0485252
0.0423414
0.0366543
0.0314713
0.0267922
0.0226091
0.0189071
0.015665
0.0128557
0.010448
0.00840743
0.00669744
0.00528089
0.004121
0.00318233
0.00243163
0.00183832
0.00137498
0.00101741
0.000744749
0.000539296
0.000386319
0.00027375
0.000191926
0.000132967
9.18782e-05
5.89409e-05
5.89409e-05
