# vtk DataFile Version 2.0
FlowField
ASCII
DATASET STRUCTURED_GRID
DIMENSIONS 102 12 1 
POINTS 1224 double
0 0 0
0.3 0 0
0.6 0 0
0.9 0 0
1.2 0 0
1.5 0 0
1.8 0 0
2.1 0 0
2.4 0 0
2.7 0 0
3 0 0
3.3 0 0
3.6 0 0
3.9 0 0
4.2 0 0
4.5 0 0
4.8 0 0
5.1 0 0
5.4 0 0
5.7 0 0
6 0 0
6.3 0 0
6.6 0 0
6.9 0 0
7.2 0 0
7.5 0 0
7.8 0 0
8.1 0 0
8.4 0 0
8.7 0 0
9 0 0
9.3 0 0
9.6 0 0
9.9 0 0
10.2 0 0
10.5 0 0
10.8 0 0
11.1 0 0
11.4 0 0
11.7 0 0
12 0 0
12.3 0 0
12.6 0 0
12.9 0 0
13.2 0 0
13.5 0 0
13.8 0 0
14.1 0 0
14.4 0 0
14.7 0 0
15 0 0
15.3 0 0
15.6 0 0
15.9 0 0
16.2 0 0
16.5 0 0
16.8 0 0
17.1 0 0
17.4 0 0
17.7 0 0
18 0 0
18.3 0 0
18.6 0 0
18.9 0 0
19.2 0 0
19.5 0 0
19.8 0 0
20.1 0 0
20.4 0 0
20.7 0 0
21 0 0
21.3 0 0
21.6 0 0
21.9 0 0
22.2 0 0
22.5 0 0
22.8 0 0
23.1 0 0
23.4 0 0
23.7 0 0
24 0 0
24.3 0 0
24.6 0 0
24.9 0 0
25.2 0 0
25.5 0 0
25.8 0 0
26.1 0 0
26.4 0 0
26.7 0 0
27 0 0
27.3 0 0
27.6 0 0
27.9 0 0
28.2 0 0
28.5 0 0
28.8 0 0
29.1 0 0
29.4 0 0
29.7 0 0
30 0 0
30.3 0 0
0 0.1 0
0.3 0.1 0
0.6 0.1 0
0.9 0.1 0
1.2 0.1 0
1.5 0.1 0
1.8 0.1 0
2.1 0.1 0
2.4 0.1 0
2.7 0.1 0
3 0.1 0
3.3 0.1 0
3.6 0.1 0
3.9 0.1 0
4.2 0.1 0
4.5 0.1 0
4.8 0.1 0
5.1 0.1 0
5.4 0.1 0
5.7 0.1 0
6 0.1 0
6.3 0.1 0
6.6 0.1 0
6.9 0.1 0
7.2 0.1 0
7.5 0.1 0
7.8 0.1 0
8.1 0.1 0
8.4 0.1 0
8.7 0.1 0
9 0.1 0
9.3 0.1 0
9.6 0.1 0
9.9 0.1 0
10.2 0.1 0
10.5 0.1 0
10.8 0.1 0
11.1 0.1 0
11.4 0.1 0
11.7 0.1 0
12 0.1 0
12.3 0.1 0
12.6 0.1 0
12.9 0.1 0
13.2 0.1 0
13.5 0.1 0
13.8 0.1 0
14.1 0.1 0
14.4 0.1 0
14.7 0.1 0
15 0.1 0
15.3 0.1 0
15.6 0.1 0
15.9 0.1 0
16.2 0.1 0
16.5 0.1 0
16.8 0.1 0
17.1 0.1 0
17.4 0.1 0
17.7 0.1 0
18 0.1 0
18.3 0.1 0
18.6 0.1 0
18.9 0.1 0
19.2 0.1 0
19.5 0.1 0
19.8 0.1 0
20.1 0.1 0
20.4 0.1 0
20.7 0.1 0
21 0.1 0
21.3 0.1 0
21.6 0.1 0
21.9 0.1 0
22.2 0.1 0
22.5 0.1 0
22.8 0.1 0
23.1 0.1 0
23.4 0.1 0
23.7 0.1 0
24 0.1 0
24.3 0.1 0
24.6 0.1 0
24.9 0.1 0
25.2 0.1 0
25.5 0.1 0
25.8 0.1 0
26.1 0.1 0
26.4 0.1 0
26.7 0.1 0
27 0.1 0
27.3 0.1 0
27.6 0.1 0
27.9 0.1 0
28.2 0.1 0
28.5 0.1 0
28.8 0.1 0
29.1 0.1 0
29.4 0.1 0
29.7 0.1 0
30 0.1 0
30.3 0.1 0
0 0.2 0
0.3 0.2 0
0.6 0.2 0
0.9 0.2 0
1.2 0.2 0
1.5 0.2 0
1.8 0.2 0
2.1 0.2 0
2.4 0.2 0
2.7 0.2 0
3 0.2 0
3.3 0.2 0
3.6 0.2 0
3.9 0.2 0
4.2 0.2 0
4.5 0.2 0
4.8 0.2 0
5.1 0.2 0
5.4 0.2 0
5.7 0.2 0
6 0.2 0
6.3 0.2 0
6.6 0.2 0
6.9 0.2 0
7.2 0.2 0
7.5 0.2 0
7.8 0.2 0
8.1 0.2 0
8.4 0.2 0
8.7 0.2 0
9 0.2 0
9.3 0.2 0
9.6 0.2 0
9.9 0.2 0
10.2 0.2 0
10.5 0.2 0
10.8 0.2 0
11.1 0.2 0
11.4 0.2 0
11.7 0.2 0
12 0.2 0
12.3 0.2 0
12.6 0.2 0
12.9 0.2 0
13.2 0.2 0
13.5 0.2 0
13.8 0.2 0
14.1 0.2 0
14.4 0.2 0
14.7 0.2 0
15 0.2 0
15.3 0.2 0
15.6 0.2 0
15.9 0.2 0
16.2 0.2 0
16.5 0.2 0
16.8 0.2 0
17.1 0.2 0
17.4 0.2 0
17.7 0.2 0
18 0.2 0
18.3 0.2 0
18.6 0.2 0
18.9 0.2 0
19.2 0.2 0
19.5 0.2 0
19.8 0.2 0
20.1 0.2 0
20.4 0.2 0
20.7 0.2 0
21 0.2 0
21.3 0.2 0
21.6 0.2 0
21.9 0.2 0
22.2 0.2 0
22.5 0.2 0
22.8 0.2 0
23.1 0.2 0
23.4 0.2 0
23.7 0.2 0
24 0.2 0
24.3 0.2 0
24.6 0.2 0
24.9 0.2 0
25.2 0.2 0
25.5 0.2 0
25.8 0.2 0
26.1 0.2 0
26.4 0.2 0
26.7 0.2 0
27 0.2 0
27.3 0.2 0
27.6 0.2 0
27.9 0.2 0
28.2 0.2 0
28.5 0.2 0
28.8 0.2 0
29.1 0.2 0
29.4 0.2 0
29.7 0.2 0
30 0.2 0
30.3 0.2 0
0 0.3 0
0.3 0.3 0
0.6 0.3 0
0.9 0.3 0
1.2 0.3 0
1.5 0.3 0
1.8 0.3 0
2.1 0.3 0
2.4 0.3 0
2.7 0.3 0
3 0.3 0
3.3 0.3 0
3.6 0.3 0
3.9 0.3 0
4.2 0.3 0
4.5 0.3 0
4.8 0.3 0
5.1 0.3 0
5.4 0.3 0
5.7 0.3 0
6 0.3 0
6.3 0.3 0
6.6 0.3 0
6.9 0.3 0
7.2 0.3 0
7.5 0.3 0
7.8 0.3 0
8.1 0.3 0
8.4 0.3 0
8.7 0.3 0
9 0.3 0
9.3 0.3 0
9.6 0.3 0
9.9 0.3 0
10.2 0.3 0
10.5 0.3 0
10.8 0.3 0
11.1 0.3 0
11.4 0.3 0
11.7 0.3 0
12 0.3 0
12.3 0.3 0
12.6 0.3 0
12.9 0.3 0
13.2 0.3 0
13.5 0.3 0
13.8 0.3 0
14.1 0.3 0
14.4 0.3 0
14.7 0.3 0
15 0.3 0
15.3 0.3 0
15.6 0.3 0
15.9 0.3 0
16.2 0.3 0
16.5 0.3 0
16.8 0.3 0
17.1 0.3 0
17.4 0.3 0
17.7 0.3 0
18 0.3 0
18.3 0.3 0
18.6 0.3 0
18.9 0.3 0
19.2 0.3 0
19.5 0.3 0
19.8 0.3 0
20.1 0.3 0
20.4 0.3 0
20.7 0.3 0
21 0.3 0
21.3 0.3 0
21.6 0.3 0
21.9 0.3 0
22.2 0.3 0
22.5 0.3 0
22.8 0.3 0
23.1 0.3 0
23.4 0.3 0
23.7 0.3 0
24 0.3 0
24.3 0.3 0
24.6 0.3 0
24.9 0.3 0
25.2 0.3 0
25.5 0.3 0
25.8 0.3 0
26.1 0.3 0
26.4 0.3 0
26.7 0.3 0
27 0.3 0
27.3 0.3 0
27.6 0.3 0
27.9 0.3 0
28.2 0.3 0
28.5 0.3 0
28.8 0.3 0
29.1 0.3 0
29.4 0.3 0
29.7 0.3 0
30 0.3 0
30.3 0.3 0
0 0.4 0
0.3 0.4 0
0.6 0.4 0
0.9 0.4 0
1.2 0.4 0
1.5 0.4 0
1.8 0.4 0
2.1 0.4 0
2.4 0.4 0
2.7 0.4 0
3 0.4 0
3.3 0.4 0
3.6 0.4 0
3.9 0.4 0
4.2 0.4 0
4.5 0.4 0
4.8 0.4 0
5.1 0.4 0
5.4 0.4 0
5.7 0.4 0
6 0.4 0
6.3 0.4 0
6.6 0.4 0
6.9 0.4 0
7.2 0.4 0
7.5 0.4 0
7.8 0.4 0
8.1 0.4 0
8.4 0.4 0
8.7 0.4 0
9 0.4 0
9.3 0.4 0
9.6 0.4 0
9.9 0.4 0
10.2 0.4 0
10.5 0.4 0
10.8 0.4 0
11.1 0.4 0
11.4 0.4 0
11.7 0.4 0
12 0.4 0
12.3 0.4 0
12.6 0.4 0
12.9 0.4 0
13.2 0.4 0
13.5 0.4 0
13.8 0.4 0
14.1 0.4 0
14.4 0.4 0
14.7 0.4 0
15 0.4 0
15.3 0.4 0
15.6 0.4 0
15.9 0.4 0
16.2 0.4 0
16.5 0.4 0
16.8 0.4 0
17.1 0.4 0
17.4 0.4 0
17.7 0.4 0
18 0.4 0
18.3 0.4 0
18.6 0.4 0
18.9 0.4 0
19.2 0.4 0
19.5 0.4 0
19.8 0.4 0
20.1 0.4 0
20.4 0.4 0
20.7 0.4 0
21 0.4 0
21.3 0.4 0
21.6 0.4 0
21.9 0.4 0
22.2 0.4 0
22.5 0.4 0
22.8 0.4 0
23.1 0.4 0
23.4 0.4 0
23.7 0.4 0
24 0.4 0
24.3 0.4 0
24.6 0.4 0
24.9 0.4 0
25.2 0.4 0
25.5 0.4 0
25.8 0.4 0
26.1 0.4 0
26.4 0.4 0
26.7 0.4 0
27 0.4 0
27.3 0.4 0
27.6 0.4 0
27.9 0.4 0
28.2 0.4 0
28.5 0.4 0
28.8 0.4 0
29.1 0.4 0
29.4 0.4 0
29.7 0.4 0
30 0.4 0
30.3 0.4 0
0 0.5 0
0.3 0.5 0
0.6 0.5 0
0.9 0.5 0
1.2 0.5 0
1.5 0.5 0
1.8 0.5 0
2.1 0.5 0
2.4 0.5 0
2.7 0.5 0
3 0.5 0
3.3 0.5 0
3.6 0.5 0
3.9 0.5 0
4.2 0.5 0
4.5 0.5 0
4.8 0.5 0
5.1 0.5 0
5.4 0.5 0
5.7 0.5 0
6 0.5 0
6.3 0.5 0
6.6 0.5 0
6.9 0.5 0
7.2 0.5 0
7.5 0.5 0
7.8 0.5 0
8.1 0.5 0
8.4 0.5 0
8.7 0.5 0
9 0.5 0
9.3 0.5 0
9.6 0.5 0
9.9 0.5 0
10.2 0.5 0
10.5 0.5 0
10.8 0.5 0
11.1 0.5 0
11.4 0.5 0
11.7 0.5 0
12 0.5 0
12.3 0.5 0
12.6 0.5 0
12.9 0.5 0
13.2 0.5 0
13.5 0.5 0
13.8 0.5 0
14.1 0.5 0
14.4 0.5 0
14.7 0.5 0
15 0.5 0
15.3 0.5 0
15.6 0.5 0
15.9 0.5 0
16.2 0.5 0
16.5 0.5 0
16.8 0.5 0
17.1 0.5 0
17.4 0.5 0
17.7 0.5 0
18 0.5 0
18.3 0.5 0
18.6 0.5 0
18.9 0.5 0
19.2 0.5 0
19.5 0.5 0
19.8 0.5 0
20.1 0.5 0
20.4 0.5 0
20.7 0.5 0
21 0.5 0
21.3 0.5 0
21.6 0.5 0
21.9 0.5 0
22.2 0.5 0
22.5 0.5 0
22.8 0.5 0
23.1 0.5 0
23.4 0.5 0
23.7 0.5 0
24 0.5 0
24.3 0.5 0
24.6 0.5 0
24.9 0.5 0
25.2 0.5 0
25.5 0.5 0
25.8 0.5 0
26.1 0.5 0
26.4 0.5 0
26.7 0.5 0
27 0.5 0
27.3 0.5 0
27.6 0.5 0
27.9 0.5 0
28.2 0.5 0
28.5 0.5 0
28.8 0.5 0
29.1 0.5 0
29.4 0.5 0
29.7 0.5 0
30 0.5 0
30.3 0.5 0
0 0.6 0
0.3 0.6 0
0.6 0.6 0
0.9 0.6 0
1.2 0.6 0
1.5 0.6 0
1.8 0.6 0
2.1 0.6 0
2.4 0.6 0
2.7 0.6 0
3 0.6 0
3.3 0.6 0
3.6 0.6 0
3.9 0.6 0
4.2 0.6 0
4.5 0.6 0
4.8 0.6 0
5.1 0.6 0
5.4 0.6 0
5.7 0.6 0
6 0.6 0
6.3 0.6 0
6.6 0.6 0
6.9 0.6 0
7.2 0.6 0
7.5 0.6 0
7.8 0.6 0
8.1 0.6 0
8.4 0.6 0
8.7 0.6 0
9 0.6 0
9.3 0.6 0
9.6 0.6 0
9.9 0.6 0
10.2 0.6 0
10.5 0.6 0
10.8 0.6 0
11.1 0.6 0
11.4 0.6 0
11.7 0.6 0
12 0.6 0
12.3 0.6 0
12.6 0.6 0
12.9 0.6 0
13.2 0.6 0
13.5 0.6 0
13.8 0.6 0
14.1 0.6 0
14.4 0.6 0
14.7 0.6 0
15 0.6 0
15.3 0.6 0
15.6 0.6 0
15.9 0.6 0
16.2 0.6 0
16.5 0.6 0
16.8 0.6 0
17.1 0.6 0
17.4 0.6 0
17.7 0.6 0
18 0.6 0
18.3 0.6 0
18.6 0.6 0
18.9 0.6 0
19.2 0.6 0
19.5 0.6 0
19.8 0.6 0
20.1 0.6 0
20.4 0.6 0
20.7 0.6 0
21 0.6 0
21.3 0.6 0
21.6 0.6 0
21.9 0.6 0
22.2 0.6 0
22.5 0.6 0
22.8 0.6 0
23.1 0.6 0
23.4 0.6 0
23.7 0.6 0
24 0.6 0
24.3 0.6 0
24.6 0.6 0
24.9 0.6 0
25.2 0.6 0
25.5 0.6 0
25.8 0.6 0
26.1 0.6 0
26.4 0.6 0
26.7 0.6 0
27 0.6 0
27.3 0.6 0
27.6 0.6 0
27.9 0.6 0
28.2 0.6 0
28.5 0.6 0
28.8 0.6 0
29.1 0.6 0
29.4 0.6 0
29.7 0.6 0
30 0.6 0
30.3 0.6 0
0 0.7 0
0.3 0.7 0
0.6 0.7 0
0.9 0.7 0
1.2 0.7 0
1.5 0.7 0
1.8 0.7 0
2.1 0.7 0
2.4 0.7 0
2.7 0.7 0
3 0.7 0
3.3 0.7 0
3.6 0.7 0
3.9 0.7 0
4.2 0.7 0
4.5 0.7 0
4.8 0.7 0
5.1 0.7 0
5.4 0.7 0
5.7 0.7 0
6 0.7 0
6.3 0.7 0
6.6 0.7 0
6.9 0.7 0
7.2 0.7 0
7.5 0.7 0
7.8 0.7 0
8.1 0.7 0
8.4 0.7 0
8.7 0.7 0
9 0.7 0
9.3 0.7 0
9.6 0.7 0
9.9 0.7 0
10.2 0.7 0
10.5 0.7 0
10.8 0.7 0
11.1 0.7 0
11.4 0.7 0
11.7 0.7 0
12 0.7 0
12.3 0.7 0
12.6 0.7 0
12.9 0.7 0
13.2 0.7 0
13.5 0.7 0
13.8 0.7 0
14.1 0.7 0
14.4 0.7 0
14.7 0.7 0
15 0.7 0
15.3 0.7 0
15.6 0.7 0
15.9 0.7 0
16.2 0.7 0
16.5 0.7 0
16.8 0.7 0
17.1 0.7 0
17.4 0.7 0
17.7 0.7 0
18 0.7 0
18.3 0.7 0
18.6 0.7 0
18.9 0.7 0
19.2 0.7 0
19.5 0.7 0
19.8 0.7 0
20.1 0.7 0
20.4 0.7 0
20.7 0.7 0
21 0.7 0
21.3 0.7 0
21.6 0.7 0
21.9 0.7 0
22.2 0.7 0
22.5 0.7 0
22.8 0.7 0
23.1 0.7 0
23.4 0.7 0
23.7 0.7 0
24 0.7 0
24.3 0.7 0
24.6 0.7 0
24.9 0.7 0
25.2 0.7 0
25.5 0.7 0
25.8 0.7 0
26.1 0.7 0
26.4 0.7 0
26.7 0.7 0
27 0.7 0
27.3 0.7 0
27.6 0.7 0
27.9 0.7 0
28.2 0.7 0
28.5 0.7 0
28.8 0.7 0
29.1 0.7 0
29.4 0.7 0
29.7 0.7 0
30 0.7 0
30.3 0.7 0
0 0.8 0
0.3 0.8 0
0.6 0.8 0
0.9 0.8 0
1.2 0.8 0
1.5 0.8 0
1.8 0.8 0
2.1 0.8 0
2.4 0.8 0
2.7 0.8 0
3 0.8 0
3.3 0.8 0
3.6 0.8 0
3.9 0.8 0
4.2 0.8 0
4.5 0.8 0
4.8 0.8 0
5.1 0.8 0
5.4 0.8 0
5.7 0.8 0
6 0.8 0
6.3 0.8 0
6.6 0.8 0
6.9 0.8 0
7.2 0.8 0
7.5 0.8 0
7.8 0.8 0
8.1 0.8 0
8.4 0.8 0
8.7 0.8 0
9 0.8 0
9.3 0.8 0
9.6 0.8 0
9.9 0.8 0
10.2 0.8 0
10.5 0.8 0
10.8 0.8 0
11.1 0.8 0
11.4 0.8 0
11.7 0.8 0
12 0.8 0
12.3 0.8 0
12.6 0.8 0
12.9 0.8 0
13.2 0.8 0
13.5 0.8 0
13.8 0.8 0
14.1 0.8 0
14.4 0.8 0
14.7 0.8 0
15 0.8 0
15.3 0.8 0
15.6 0.8 0
15.9 0.8 0
16.2 0.8 0
16.5 0.8 0
16.8 0.8 0
17.1 0.8 0
17.4 0.8 0
17.7 0.8 0
18 0.8 0
18.3 0.8 0
18.6 0.8 0
18.9 0.8 0
19.2 0.8 0
19.5 0.8 0
19.8 0.8 0
20.1 0.8 0
20.4 0.8 0
20.7 0.8 0
21 0.8 0
21.3 0.8 0
21.6 0.8 0
21.9 0.8 0
22.2 0.8 0
22.5 0.8 0
22.8 0.8 0
23.1 0.8 0
23.4 0.8 0
23.7 0.8 0
24 0.8 0
24.3 0.8 0
24.6 0.8 0
24.9 0.8 0
25.2 0.8 0
25.5 0.8 0
25.8 0.8 0
26.1 0.8 0
26.4 0.8 0
26.7 0.8 0
27 0.8 0
27.3 0.8 0
27.6 0.8 0
27.9 0.8 0
28.2 0.8 0
28.5 0.8 0
28.8 0.8 0
29.1 0.8 0
29.4 0.8 0
29.7 0.8 0
30 0.8 0
30.3 0.8 0
0 0.9 0
0.3 0.9 0
0.6 0.9 0
0.9 0.9 0
1.2 0.9 0
1.5 0.9 0
1.8 0.9 0
2.1 0.9 0
2.4 0.9 0
2.7 0.9 0
3 0.9 0
3.3 0.9 0
3.6 0.9 0
3.9 0.9 0
4.2 0.9 0
4.5 0.9 0
4.8 0.9 0
5.1 0.9 0
5.4 0.9 0
5.7 0.9 0
6 0.9 0
6.3 0.9 0
6.6 0.9 0
6.9 0.9 0
7.2 0.9 0
7.5 0.9 0
7.8 0.9 0
8.1 0.9 0
8.4 0.9 0
8.7 0.9 0
9 0.9 0
9.3 0.9 0
9.6 0.9 0
9.9 0.9 0
10.2 0.9 0
10.5 0.9 0
10.8 0.9 0
11.1 0.9 0
11.4 0.9 0
11.7 0.9 0
12 0.9 0
12.3 0.9 0
12.6 0.9 0
12.9 0.9 0
13.2 0.9 0
13.5 0.9 0
13.8 0.9 0
14.1 0.9 0
14.4 0.9 0
14.7 0.9 0
15 0.9 0
15.3 0.9 0
15.6 0.9 0
15.9 0.9 0
16.2 0.9 0
16.5 0.9 0
16.8 0.9 0
17.1 0.9 0
17.4 0.9 0
17.7 0.9 0
18 0.9 0
18.3 0.9 0
18.6 0.9 0
18.9 0.9 0
19.2 0.9 0
19.5 0.9 0
19.8 0.9 0
20.1 0.9 0
20.4 0.9 0
20.7 0.9 0
21 0.9 0
21.3 0.9 0
21.6 0.9 0
21.9 0.9 0
22.2 0.9 0
22.5 0.9 0
22.8 0.9 0
23.1 0.9 0
23.4 0.9 0
23.7 0.9 0
24 0.9 0
24.3 0.9 0
24.6 0.9 0
24.9 0.9 0
25.2 0.9 0
25.5 0.9 0
25.8 0.9 0
26.1 0.9 0
26.4 0.9 0
26.7 0.9 0
27 0.9 0
27.3 0.9 0
27.6 0.9 0
27.9 0.9 0
28.2 0.9 0
28.5 0.9 0
28.8 0.9 0
29.1 0.9 0
29.4 0.9 0
29.7 0.9 0
30 0.9 0
30.3 0.9 0
0 1 0
0.3 1 0
0.6 1 0
0.9 1 0
1.2 1 0
1.5 1 0
1.8 1 0
2.1 1 0
2.4 1 0
2.7 1 0
3 1 0
3.3 1 0
3.6 1 0
3.9 1 0
4.2 1 0
4.5 1 0
4.8 1 0
5.1 1 0
5.4 1 0
5.7 1 0
6 1 0
6.3 1 0
6.6 1 0
6.9 1 0
7.2 1 0
7.5 1 0
7.8 1 0
8.1 1 0
8.4 1 0
8.7 1 0
9 1 0
9.3 1 0
9.6 1 0
9.9 1 0
10.2 1 0
10.5 1 0
10.8 1 0
11.1 1 0
11.4 1 0
11.7 1 0
12 1 0
12.3 1 0
12.6 1 0
12.9 1 0
13.2 1 0
13.5 1 0
13.8 1 0
14.1 1 0
14.4 1 0
14.7 1 0
15 1 0
15.3 1 0
15.6 1 0
15.9 1 0
16.2 1 0
16.5 1 0
16.8 1 0
17.1 1 0
17.4 1 0
17.7 1 0
18 1 0
18.3 1 0
18.6 1 0
18.9 1 0
19.2 1 0
19.5 1 0
19.8 1 0
20.1 1 0
20.4 1 0
20.7 1 0
21 1 0
21.3 1 0
21.6 1 0
21.9 1 0
22.2 1 0
22.5 1 0
22.8 1 0
23.1 1 0
23.4 1 0
23.7 1 0
24 1 0
24.3 1 0
24.6 1 0
24.9 1 0
25.2 1 0
25.5 1 0
25.8 1 0
26.1 1 0
26.4 1 0
26.7 1 0
27 1 0
27.3 1 0
27.6 1 0
27.9 1 0
28.2 1 0
28.5 1 0
28.8 1 0
29.1 1 0
29.4 1 0
29.7 1 0
30 1 0
30.3 1 0
0 1.1 0
0.3 1.1 0
0.6 1.1 0
0.9 1.1 0
1.2 1.1 0
1.5 1.1 0
1.8 1.1 0
2.1 1.1 0
2.4 1.1 0
2.7 1.1 0
3 1.1 0
3.3 1.1 0
3.6 1.1 0
3.9 1.1 0
4.2 1.1 0
4.5 1.1 0
4.8 1.1 0
5.1 1.1 0
5.4 1.1 0
5.7 1.1 0
6 1.1 0
6.3 1.1 0
6.6 1.1 0
6.9 1.1 0
7.2 1.1 0
7.5 1.1 0
7.8 1.1 0
8.1 1.1 0
8.4 1.1 0
8.7 1.1 0
9 1.1 0
9.3 1.1 0
9.6 1.1 0
9.9 1.1 0
10.2 1.1 0
10.5 1.1 0
10.8 1.1 0
11.1 1.1 0
11.4 1.1 0
11.7 1.1 0
12 1.1 0
12.3 1.1 0
12.6 1.1 0
12.9 1.1 0
13.2 1.1 0
13.5 1.1 0
13.8 1.1 0
14.1 1.1 0
14.4 1.1 0
14.7 1.1 0
15 1.1 0
15.3 1.1 0
15.6 1.1 0
15.9 1.1 0
16.2 1.1 0
16.5 1.1 0
16.8 1.1 0
17.1 1.1 0
17.4 1.1 0
17.7 1.1 0
18 1.1 0
18.3 1.1 0
18.6 1.1 0
18.9 1.1 0
19.2 1.1 0
19.5 1.1 0
19.8 1.1 0
20.1 1.1 0
20.4 1.1 0
20.7 1.1 0
21 1.1 0
21.3 1.1 0
21.6 1.1 0
21.9 1.1 0
22.2 1.1 0
22.5 1.1 0
22.8 1.1 0
23.1 1.1 0
23.4 1.1 0
23.7 1.1 0
24 1.1 0
24.3 1.1 0
24.6 1.1 0
24.9 1.1 0
25.2 1.1 0
25.5 1.1 0
25.8 1.1 0
26.1 1.1 0
26.4 1.1 0
26.7 1.1 0
27 1.1 0
27.3 1.1 0
27.6 1.1 0
27.9 1.1 0
28.2 1.1 0
28.5 1.1 0
28.8 1.1 0
29.1 1.1 0
29.4 1.1 0
29.7 1.1 0
30 1.1 0
30.3 1.1 0

POINT_DATA 1224

VECTORS velocity double
LOOKUP_TABLE default
-1 0 0
-0.901149 0 0
-0.83881 0 0
-0.815221 0 0
-0.808662 0 0
-0.807215 0 0
-0.806951 0 0
-0.80691 0 0
-0.806905 0 0
-0.806905 0 0
-0.806905 0 0
-0.806905 0 0
-0.806905 0 0
-0.806906 0 0
-0.806906 0 0
-0.806906 0 0
-0.806906 0 0
-0.806906 0 0
-0.806906 0 0
-0.806906 0 0
-0.806906 0 0
-0.806907 0 0
-0.806907 0 0
-0.806907 0 0
-0.806907 0 0
-0.806907 0 0
-0.806907 0 0
-0.806907 0 0
-0.806907 0 0
-0.806907 0 0
-0.806907 0 0
-0.806907 0 0
-0.806907 0 0
-0.806907 0 0
-0.806907 0 0
-0.806907 0 0
-0.806907 0 0
-0.806907 0 0
-0.806906 0 0
-0.806906 0 0
-0.806906 0 0
-0.806906 0 0
-0.806906 0 0
-0.806906 0 0
-0.806906 0 0
-0.806905 0 0
-0.806905 0 0
-0.806905 0 0
-0.806905 0 0
-0.806904 0 0
-0.806904 0 0
-0.806904 0 0
-0.806904 0 0
-0.806903 0 0
-0.806903 0 0
-0.806903 0 0
-0.806902 0 0
-0.806902 0 0
-0.806902 0 0
-0.806901 0 0
-0.806901 0 0
-0.806901 0 0
-0.8069 0 0
-0.8069 0 0
-0.806899 0 0
-0.806899 0 0
-0.806899 0 0
-0.806898 0 0
-0.806898 0 0
-0.806897 0 0
-0.806897 0 0
-0.806896 0 0
-0.806896 0 0
-0.806895 0 0
-0.806895 0 0
-0.806894 0 0
-0.806894 0 0
-0.806893 0 0
-0.806893 0 0
-0.806892 0 0
-0.806891 0 0
-0.806891 0 0
-0.80689 0 0
-0.80689 0 0
-0.806889 0 0
-0.806889 0 0
-0.806888 0 0
-0.806887 0 0
-0.806887 0 0
-0.806886 0 0
-0.806886 0 0
-0.806885 0 0
-0.806885 0 0
-0.806884 0 0
-0.806884 0 0
-0.806884 0 0
-0.806889 0 0
-0.806927 0 0
-0.807001 0 0
-0.808702 0 0
-0.808702 0 0
-1 0 0
1 -0.0329502 0
0.901149 0.0329502 0
0.83881 0.0207798 0
0.815221 0.00786296 0
0.808662 0.00218629 0
0.807215 0.000482459 0
0.806951 8.80343e-05 0
0.80691 1.34809e-05 0
0.806905 1.65485e-06 0
0.806905 8.10564e-08 0
0.806905 -8.34674e-08 0
0.806905 -8.93851e-08 0
0.806905 -8.69951e-08 0
0.806906 -8.65472e-08 0
0.806906 -8.70592e-08 0
0.806906 -8.79202e-08 0
0.806906 -8.89545e-08 0
0.806906 -9.01198e-08 0
0.806906 -9.14056e-08 0
0.806906 -9.28086e-08 0
0.806906 -9.43266e-08 0
0.806907 -9.59578e-08 0
0.806907 -9.77002e-08 0
0.806907 -9.95533e-08 0
0.806907 -1.01515e-07 0
0.806907 -1.03585e-07 0
0.806907 -1.05756e-07 0
0.806907 -1.08025e-07 0
0.806907 -1.1039e-07 0
0.806907 -1.12851e-07 0
0.806907 -1.15404e-07 0
0.806907 -1.18046e-07 0
0.806907 -1.20775e-07 0
0.806907 -1.23589e-07 0
0.806907 -1.26483e-07 0
0.806907 -1.29456e-07 0
0.806907 -1.32506e-07 0
0.806907 -1.35634e-07 0
0.806906 -1.38834e-07 0
0.806906 -1.42099e-07 0
0.806906 -1.45421e-07 0
0.806906 -1.488e-07 0
0.806906 -1.52234e-07 0
0.806906 -1.55722e-07 0
0.806906 -1.59258e-07 0
0.806905 -1.62847e-07 0
0.806905 -1.66483e-07 0
0.806905 -1.70157e-07 0
0.806905 -1.7385e-07 0
0.806904 -1.77644e-07 0
0.806904 -1.81488e-07 0
0.806904 -1.85391e-07 0
0.806904 -1.89324e-07 0
0.806903 -1.9323e-07 0
0.806903 -1.97105e-07 0
0.806903 -2.00984e-07 0
0.806902 -2.04871e-07 0
0.806902 -2.08768e-07 0
0.806902 -2.12667e-07 0
0.806901 -2.16555e-07 0
0.806901 -2.20428e-07 0
0.806901 -2.24286e-07 0
0.8069 -2.2813e-07 0
0.8069 -2.31957e-07 0
0.806899 -2.35764e-07 0
0.806899 -2.39547e-07 0
0.806899 -2.43303e-07 0
0.806898 -2.47028e-07 0
0.806898 -2.50719e-07 0
0.806897 -2.54372e-07 0
0.806897 -2.57984e-07 0
0.806896 -2.6155e-07 0
0.806896 -2.65068e-07 0
0.806895 -2.68534e-07 0
0.806895 -2.71944e-07 0
0.806894 -2.75295e-07 0
0.806894 -2.78583e-07 0
0.806893 -2.81806e-07 0
0.806893 -2.84959e-07 0
0.806892 -2.88041e-07 0
0.806891 -2.91047e-07 0
0.806891 -2.93973e-07 0
0.80689 -2.96815e-07 0
0.80689 -2.99572e-07 0
0.806889 -3.0224e-07 0
0.806889 -3.04816e-07 0
0.806888 -3.07298e-07 0
0.806887 -3.09684e-07 0
0.806887 -3.11973e-07 0
0.806886 -3.14177e-07 0
0.806886 -3.16359e-07 0
0.806885 -3.18843e-07 0
0.806885 -3.23256e-07 0
0.806884 -3.37733e-07 0
0.806884 -4.02581e-07 0
0.806884 -7.30789e-07 0
0.806889 -2.16083e-06 0
0.806927 -1.30007e-05 0
0.807001 -2.53469e-05 0
0.808702 -0.000567521 0
0.808702 -0.00119029 0
1 -0.00119029 0
1 -0.0239512 0
1.027 0.0239512 0
1.03483 0.0181689 0
1.036 0.00747229 0
1.03588 0.00222645 0
1.03574 0.000528041 0
1.03569 0.000104555 0
1.03568 1.76836e-05 0
1.03568 2.51417e-06 0
1.03568 2.3525e-07 0
1.03568 -5.12147e-08 0
1.03568 -7.7241e-08 0
1.03568 -7.74789e-08 0
1.03568 -7.72183e-08 0
1.03568 -7.77036e-08 0
1.03568 -7.85623e-08 0
1.03568 -7.96214e-08 0
1.03568 -8.08301e-08 0
1.03568 -8.21744e-08 0
1.03568 -8.36499e-08 0
1.03568 -8.5254e-08 0
1.03568 -8.69848e-08 0
1.03568 -8.88402e-08 0
1.03568 -9.08183e-08 0
1.03568 -9.29167e-08 0
1.03568 -9.51334e-08 0
1.03568 -9.74654e-08 0
1.03568 -9.99097e-08 0
1.03568 -1.02464e-07 0
1.03568 -1.05124e-07 0
1.03568 -1.07889e-07 0
1.03568 -1.10755e-07 0
1.03568 -1.13718e-07 0
1.03568 -1.16777e-07 0
1.03568 -1.19927e-07 0
1.03568 -1.23166e-07 0
1.03568 -1.26491e-07 0
1.03568 -1.29898e-07 0
1.03568 -1.33382e-07 0
1.03568 -1.36941e-07 0
1.03568 -1.40571e-07 0
1.03568 -1.44269e-07 0
1.03567 -1.48033e-07 0
1.03567 -1.51857e-07 0
1.03567 -1.5574e-07 0
1.03567 -1.59676e-07 0
1.03567 -1.6366e-07 0
1.03567 -1.6769e-07 0
1.03567 -1.7177e-07 0
1.03567 -1.7589e-07 0
1.03567 -1.80043e-07 0
1.03567 -1.84224e-07 0
1.03567 -1.88425e-07 0
1.03567 -1.92645e-07 0
1.03567 -1.96889e-07 0
1.03567 -2.01153e-07 0
1.03567 -2.05431e-07 0
1.03567 -2.09717e-07 0
1.03567 -2.14007e-07 0
1.03567 -2.18296e-07 0
1.03567 -2.22583e-07 0
1.03567 -2.26863e-07 0
1.03567 -2.31133e-07 0
1.03567 -2.35388e-07 0
1.03567 -2.39623e-07 0
1.03567 -2.43836e-07 0
1.03567 -2.48022e-07 0
1.03567 -2.52177e-07 0
1.03567 -2.56296e-07 0
1.03567 -2.60378e-07 0
1.03567 -2.64416e-07 0
1.03567 -2.68407e-07 0
1.03567 -2.72348e-07 0
1.03567 -2.76235e-07 0
1.03566 -2.80062e-07 0
1.03566 -2.83828e-07 0
1.03566 -2.87527e-07 0
1.03566 -2.91156e-07 0
1.03566 -2.94711e-07 0
1.03566 -2.98188e-07 0
1.03566 -3.01584e-07 0
1.03566 -3.04895e-07 0
1.03566 -3.08117e-07 0
1.03566 -3.11247e-07 0
1.03566 -3.14282e-07 0
1.03566 -3.17218e-07 0
1.03566 -3.20051e-07 0
1.03566 -3.22781e-07 0
1.03566 -3.25408e-07 0
1.03566 -3.27951e-07 0
1.03566 -3.30509e-07 0
1.03566 -3.33589e-07 0
1.03566 -3.39717e-07 0
1.03566 -3.61513e-07 0
1.03566 -4.6184e-07 0
1.03566 -9.57387e-07 0
1.03566 -3.36413e-06 0
1.03567 -1.65501e-05 0
1.03579 -6.57167e-05 0
1.03564 -0.000517393 0
1.03564 -0.00106104 0
1 -0.00106104 0
1 -0.0145337 0
1.02825 0.0145337 0
1.04498 0.0125936 0
1.0505 0.00563115 0
1.05175 0.00181005 0
1.05195 0.000463091 0
1.05196 9.92267e-05 0
1.05196 1.83046e-05 0
1.05196 2.91037e-06 0
1.05196 3.58722e-07 0
1.05196 -8.15393e-09 0
1.05196 -5.1945e-08 0
1.05196 -5.57422e-08 0
1.05196 -5.62864e-08 0
1.05196 -5.71168e-08 0
1.05196 -5.82689e-08 0
1.05196 -5.96344e-08 0
1.05196 -6.11712e-08 0
1.05196 -6.28656e-08 0
1.05196 -6.47129e-08 0
1.05196 -6.67098e-08 0
1.05196 -6.88539e-08 0
1.05196 -7.11426e-08 0
1.05196 -7.35735e-08 0
1.05196 -7.61439e-08 0
1.05196 -7.88517e-08 0
1.05196 -8.16934e-08 0
1.05196 -8.46644e-08 0
1.05196 -8.77619e-08 0
1.05196 -9.09827e-08 0
1.05196 -9.43231e-08 0
1.05196 -9.77796e-08 0
1.05196 -1.01349e-07 0
1.05196 -1.05027e-07 0
1.05196 -1.0881e-07 0
1.05196 -1.12695e-07 0
1.05195 -1.16678e-07 0
1.05195 -1.20753e-07 0
1.05195 -1.24917e-07 0
1.05195 -1.29165e-07 0
1.05195 -1.33495e-07 0
1.05195 -1.37902e-07 0
1.05195 -1.42384e-07 0
1.05195 -1.46933e-07 0
1.05195 -1.51548e-07 0
1.05195 -1.56221e-07 0
1.05195 -1.60948e-07 0
1.05195 -1.65727e-07 0
1.05195 -1.70557e-07 0
1.05195 -1.75426e-07 0
1.05195 -1.8033e-07 0
1.05195 -1.85262e-07 0
1.05195 -1.90217e-07 0
1.05195 -1.95197e-07 0
1.05195 -2.00204e-07 0
1.05195 -2.0523e-07 0
1.05195 -2.10268e-07 0
1.05195 -2.15311e-07 0
1.05195 -2.20355e-07 0
1.05195 -2.25397e-07 0
1.05195 -2.30433e-07 0
1.05195 -2.35458e-07 0
1.05195 -2.40466e-07 0
1.05195 -2.45453e-07 0
1.05195 -2.50415e-07 0
1.05195 -2.55345e-07 0
1.05195 -2.60241e-07 0
1.05195 -2.65096e-07 0
1.05195 -2.69907e-07 0
1.05195 -2.74668e-07 0
1.05195 -2.79376e-07 0
1.05195 -2.84025e-07 0
1.05194 -2.88611e-07 0
1.05194 -2.93129e-07 0
1.05194 -2.97575e-07 0
1.05194 -3.01944e-07 0
1.05194 -3.06232e-07 0
1.05194 -3.10434e-07 0
1.05194 -3.14546e-07 0
1.05194 -3.18563e-07 0
1.05194 -3.2248e-07 0
1.05194 -3.26295e-07 0
1.05194 -3.30003e-07 0
1.05194 -3.336e-07 0
1.05194 -3.37081e-07 0
1.05194 -3.40443e-07 0
1.05194 -3.43683e-07 0
1.05194 -3.46798e-07 0
1.05194 -3.49788e-07 0
1.05194 -3.52673e-07 0
1.05194 -3.55548e-07 0
1.05194 -3.58904e-07 0
1.05194 -3.6518e-07 0
1.05194 -3.86536e-07 0
1.05194 -4.83551e-07 0
1.05194 -9.57639e-07 0
1.05193 -3.29144e-06 0
1.05193 -1.48989e-05 0
1.05193 -6.63776e-05 0
1.05143 -0.000349359 0
1.05143 -0.000718405 0
1 -0.000718405 0
1 -0.00683863 0
1.02309 0.00683863 0
1.04168 0.00639398 0
1.04958 0.00300052 0
1.05199 0.00100567 0
1.05258 0.000267682 0
1.05269 5.9624e-05 0
1.05271 1.14391e-05 0
1.05272 1.8991e-06 0
1.05272 2.50917e-07 0
1.05272 2.17909e-09 0
1.05272 -2.98839e-08 0
1.05272 -3.35063e-08 0
1.05272 -3.45309e-08 0
1.05272 -3.57285e-08 0
1.05272 -3.7206e-08 0
1.05272 -3.89025e-08 0
1.05272 -4.07891e-08 0
1.05272 -4.28551e-08 0
1.05272 -4.50958e-08 0
1.05272 -4.75077e-08 0
1.05272 -5.00878e-08 0
1.05272 -5.28329e-08 0
1.05272 -5.57405e-08 0
1.05272 -5.88073e-08 0
1.05272 -6.20313e-08 0
1.05272 -6.54082e-08 0
1.05272 -6.89317e-08 0
1.05272 -7.25988e-08 0
1.05272 -7.64058e-08 0
1.05272 -8.03485e-08 0
1.05272 -8.44228e-08 0
1.05272 -8.86246e-08 0
1.05271 -9.29495e-08 0
1.05271 -9.73932e-08 0
1.05271 -1.01951e-07 0
1.05271 -1.0662e-07 0
1.05271 -1.11393e-07 0
1.05271 -1.16266e-07 0
1.05271 -1.21233e-07 0
1.05271 -1.26292e-07 0
1.05271 -1.31437e-07 0
1.05271 -1.36664e-07 0
1.05271 -1.41968e-07 0
1.05271 -1.47342e-07 0
1.05271 -1.52782e-07 0
1.05271 -1.58281e-07 0
1.05271 -1.63837e-07 0
1.05271 -1.69446e-07 0
1.05271 -1.75099e-07 0
1.05271 -1.80791e-07 0
1.05271 -1.86517e-07 0
1.05271 -1.92271e-07 0
1.05271 -1.9805e-07 0
1.05271 -2.03852e-07 0
1.05271 -2.09669e-07 0
1.05271 -2.15495e-07 0
1.05271 -2.21324e-07 0
1.05271 -2.27151e-07 0
1.05271 -2.32972e-07 0
1.05271 -2.38782e-07 0
1.05271 -2.44575e-07 0
1.05271 -2.50345e-07 0
1.05271 -2.56087e-07 0
1.05271 -2.61795e-07 0
1.05271 -2.67465e-07 0
1.05271 -2.7309e-07 0
1.05271 -2.78665e-07 0
1.05271 -2.84185e-07 0
1.05271 -2.89645e-07 0
1.0527 -2.95039e-07 0
1.0527 -3.00362e-07 0
1.0527 -3.05609e-07 0
1.0527 -3.10774e-07 0
1.0527 -3.15852e-07 0
1.0527 -3.20838e-07 0
1.0527 -3.25727e-07 0
1.0527 -3.30513e-07 0
1.0527 -3.35192e-07 0
1.0527 -3.39758e-07 0
1.0527 -3.44207e-07 0
1.0527 -3.48534e-07 0
1.0527 -3.52734e-07 0
1.0527 -3.56803e-07 0
1.0527 -3.60736e-07 0
1.0527 -3.64529e-07 0
1.0527 -3.68178e-07 0
1.0527 -3.71679e-07 0
1.0527 -3.75032e-07 0
1.0527 -3.78246e-07 0
1.0527 -3.81382e-07 0
1.0527 -3.84738e-07 0
1.0527 -3.89794e-07 0
1.0527 -4.03902e-07 0
1.0527 -4.63675e-07 0
1.05269 -7.50863e-07 0
1.05269 -2.16024e-06 0
1.05267 -8.93545e-06 0
1.05259 -3.97153e-05 0
1.05207 -0.000174822 0
1.05207 -0.000359888 0
1 -0.000359888 0
1 -2.17125e-07 0
1.02052 2.17125e-07 0
1.0397 -1.75344e-07 0
1.0487 -5.65838e-07 0
1.05172 -5.25955e-07 0
1.05252 -3.16521e-07 0
1.0527 -1.52245e-07 0
1.05274 -6.65915e-08 0
1.05274 -3.01073e-08 0
1.05274 -1.63335e-08 0
1.05274 -1.18474e-08 0
1.05274 -1.09877e-08 0
1.05274 -1.15507e-08 0
1.05274 -1.27488e-08 0
1.05274 -1.43026e-08 0
1.05274 -1.6113e-08 0
1.05274 -1.81443e-08 0
1.05274 -2.03825e-08 0
1.05274 -2.28212e-08 0
1.05274 -2.54564e-08 0
1.05274 -2.82842e-08 0
1.05274 -3.13013e-08 0
1.05274 -3.45037e-08 0
1.05274 -3.78889e-08 0
1.05274 -4.14529e-08 0
1.05274 -4.51942e-08 0
1.05274 -4.91076e-08 0
1.05274 -5.31846e-08 0
1.05274 -5.74223e-08 0
1.05274 -6.18165e-08 0
1.05274 -6.63626e-08 0
1.05274 -7.10557e-08 0
1.05274 -7.58911e-08 0
1.05274 -8.0864e-08 0
1.05274 -8.59692e-08 0
1.05274 -9.12017e-08 0
1.05274 -9.65573e-08 0
1.05274 -1.0203e-07 0
1.05274 -1.07613e-07 0
1.05274 -1.133e-07 0
1.05274 -1.19088e-07 0
1.05274 -1.24972e-07 0
1.05274 -1.30947e-07 0
1.05274 -1.37005e-07 0
1.05274 -1.43141e-07 0
1.05274 -1.49348e-07 0
1.05274 -1.55621e-07 0
1.05274 -1.61955e-07 0
1.05274 -1.68343e-07 0
1.05274 -1.74781e-07 0
1.05274 -1.81264e-07 0
1.05274 -1.87786e-07 0
1.05274 -1.94341e-07 0
1.05274 -2.00921e-07 0
1.05274 -2.0752e-07 0
1.05274 -2.14129e-07 0
1.05274 -2.20744e-07 0
1.05274 -2.2736e-07 0
1.05273 -2.33971e-07 0
1.05273 -2.40572e-07 0
1.05273 -2.47157e-07 0
1.05273 -2.53719e-07 0
1.05273 -2.60252e-07 0
1.05273 -2.66749e-07 0
1.05273 -2.73205e-07 0
1.05273 -2.79614e-07 0
1.05273 -2.85969e-07 0
1.05273 -2.92265e-07 0
1.05273 -2.98495e-07 0
1.05273 -3.04654e-07 0
1.05273 -3.10735e-07 0
1.05273 -3.16733e-07 0
1.05273 -3.22641e-07 0
1.05273 -3.28453e-07 0
1.05273 -3.34163e-07 0
1.05273 -3.39767e-07 0
1.05273 -3.45257e-07 0
1.05273 -3.50628e-07 0
1.05273 -3.55874e-07 0
1.05273 -3.6099e-07 0
1.05273 -3.6597e-07 0
1.05273 -3.70809e-07 0
1.05273 -3.75502e-07 0
1.05273 -3.80043e-07 0
1.05273 -3.84428e-07 0
1.05273 -3.88651e-07 0
1.05272 -3.92708e-07 0
1.05272 -3.96595e-07 0
1.05272 -4.00308e-07 0
1.05272 -4.03846e-07 0
1.05272 -4.07208e-07 0
1.05272 -4.10398e-07 0
1.05272 -4.13416e-07 0
1.05272 -4.16205e-07 0
1.05272 -4.18484e-07 0
1.05272 -4.2e-07 0
1.05271 -4.21758e-07 0
1.05269 -4.22919e-07 0
1.05257 -4.22848e-07 0
1.05205 -4.19782e-07 0
1.05205 -4.11778e-07 0
1 -4.11778e-07 0
1 0.00683824 0
1.02052 -0.00683824 0
1.0397 -0.00639437 0
1.0487 -0.00300164 0
1.05172 -0.00100669 0
1.05252 -0.000268289 0
1.0527 -5.99136e-05 0
1.05274 -1.15655e-05 0
1.05274 -1.9566e-06 0
1.05274 -2.82552e-07 0
1.05274 -2.5499e-08 0
1.05274 8.0353e-09 0
1.05274 1.04441e-08 0
1.05274 9.04164e-09 0
1.05274 7.12083e-09 0
1.05274 4.97373e-09 0
1.05274 2.60641e-09 0
1.05274 1.61737e-11 0
1.05274 -2.79534e-09 0
1.05274 -5.82498e-09 0
1.05274 -9.06882e-09 0
1.05274 -1.25227e-08 0
1.05274 -1.61824e-08 0
1.05274 -2.00452e-08 0
1.05274 -2.4106e-08 0
1.05274 -2.83647e-08 0
1.05274 -3.28149e-08 0
1.05274 -3.74451e-08 0
1.05274 -4.22533e-08 0
1.05274 -4.72347e-08 0
1.05274 -5.2384e-08 0
1.05274 -5.76957e-08 0
1.05274 -6.31647e-08 0
1.05274 -6.87854e-08 0
1.05274 -7.45519e-08 0
1.05274 -8.04586e-08 0
1.05274 -8.65012e-08 0
1.05274 -9.26726e-08 0
1.05274 -9.89653e-08 0
1.05274 -1.05373e-07 0
1.05274 -1.1189e-07 0
1.05274 -1.18513e-07 0
1.05274 -1.25235e-07 0
1.05274 -1.32048e-07 0
1.05274 -1.38945e-07 0
1.05274 -1.45919e-07 0
1.05274 -1.52965e-07 0
1.05274 -1.60077e-07 0
1.05274 -1.67245e-07 0
1.05274 -1.74468e-07 0
1.05274 -1.8174e-07 0
1.05274 -1.89059e-07 0
1.05274 -1.96415e-07 0
1.05274 -2.03796e-07 0
1.05274 -2.11191e-07 0
1.05274 -2.18592e-07 0
1.05274 -2.25997e-07 0
1.05274 -2.33399e-07 0
1.05273 -2.40794e-07 0
1.05273 -2.48174e-07 0
1.05273 -2.55534e-07 0
1.05273 -2.62865e-07 0
1.05273 -2.7016e-07 0
1.05273 -2.77412e-07 0
1.05273 -2.84616e-07 0
1.05273 -2.91764e-07 0
1.05273 -2.98849e-07 0
1.05273 -3.05866e-07 0
1.05273 -3.12806e-07 0
1.05273 -3.19663e-07 0
1.05273 -3.26431e-07 0
1.05273 -3.33103e-07 0
1.05273 -3.39672e-07 0
1.05273 -3.46131e-07 0
1.05273 -3.52474e-07 0
1.05273 -3.58694e-07 0
1.05273 -3.64785e-07 0
1.05273 -3.7074e-07 0
1.05273 -3.76554e-07 0
1.05273 -3.82219e-07 0
1.05273 -3.8773e-07 0
1.05273 -3.93081e-07 0
1.05273 -3.98266e-07 0
1.05273 -4.03279e-07 0
1.05273 -4.08115e-07 0
1.05273 -4.12769e-07 0
1.05272 -4.17234e-07 0
1.05272 -4.21507e-07 0
1.05272 -4.2558e-07 0
1.05272 -4.2944e-07 0
1.05272 -4.33027e-07 0
1.05272 -4.36051e-07 0
1.05272 -4.37036e-07 0
1.05272 -4.28538e-07 0
1.05272 -3.73351e-07 0
1.05272 -8.90843e-08 0
1.05271 1.31668e-06 0
1.05269 8.08948e-06 0
1.05257 3.88694e-05 0
1.05205 0.000173982 0
1.05205 0.000359065 0
1 0.000359065 0
1 0.0145334 0
1.02309 -0.0145334 0
1.04168 -0.0125941 0
1.04958 -0.00563225 0
1.05199 -0.00181098 0
1.05258 -0.000463617 0
1.05269 -9.9472e-05 0
1.05271 -1.84112e-05 0
1.05272 -2.95999e-06 0
1.05272 -3.87391e-07 0
1.05272 -1.41046e-08 0
1.05272 3.04467e-08 0
1.05272 3.27795e-08 0
1.05272 3.08075e-08 0
1.05272 2.84876e-08 0
1.05272 2.60034e-08 0
1.05272 2.33005e-08 0
1.05272 2.03584e-08 0
1.05272 1.71741e-08 0
1.05272 1.375e-08 0
1.05272 1.00903e-08 0
1.05272 6.19972e-09 0
1.05272 2.08348e-09 0
1.05272 -2.25642e-09 0
1.05272 -6.81294e-09 0
1.05272 -1.15885e-08 0
1.05272 -1.65758e-08 0
1.05272 -2.17582e-08 0
1.05272 -2.71362e-08 0
1.05272 -3.27042e-08 0
1.05272 -3.84559e-08 0
1.05272 -4.43856e-08 0
1.05272 -5.04873e-08 0
1.05271 -5.6755e-08 0
1.05271 -6.3182e-08 0
1.05271 -6.97617e-08 0
1.05271 -7.64904e-08 0
1.05271 -8.33598e-08 0
1.05271 -9.03614e-08 0
1.05271 -9.74881e-08 0
1.05271 -1.04733e-07 0
1.05271 -1.12093e-07 0
1.05271 -1.19562e-07 0
1.05271 -1.27128e-07 0
1.05271 -1.34786e-07 0
1.05271 -1.42525e-07 0
1.05271 -1.50342e-07 0
1.05271 -1.58232e-07 0
1.05271 -1.66177e-07 0
1.05271 -1.74182e-07 0
1.05271 -1.82243e-07 0
1.05271 -1.90354e-07 0
1.05271 -1.98509e-07 0
1.05271 -2.06689e-07 0
1.05271 -2.14878e-07 0
1.05271 -2.23069e-07 0
1.05271 -2.31261e-07 0
1.05271 -2.39448e-07 0
1.05271 -2.47625e-07 0
1.05271 -2.55784e-07 0
1.05271 -2.63917e-07 0
1.05271 -2.72015e-07 0
1.05271 -2.8007e-07 0
1.05271 -2.88077e-07 0
1.05271 -2.96026e-07 0
1.05271 -3.03912e-07 0
1.05271 -3.11726e-07 0
1.05271 -3.19461e-07 0
1.05271 -3.2711e-07 0
1.05271 -3.34665e-07 0
1.0527 -3.42118e-07 0
1.0527 -3.49462e-07 0
1.0527 -3.56691e-07 0
1.0527 -3.63795e-07 0
1.0527 -3.70769e-07 0
1.0527 -3.77605e-07 0
1.0527 -3.84295e-07 0
1.0527 -3.90834e-07 0
1.0527 -3.97213e-07 0
1.0527 -4.03427e-07 0
1.0527 -4.09467e-07 0
1.0527 -4.15329e-07 0
1.0527 -4.21005e-07 0
1.0527 -4.26489e-07 0
1.0527 -4.31775e-07 0
1.0527 -4.36857e-07 0
1.0527 -4.4173e-07 0
1.0527 -4.46387e-07 0
1.0527 -4.5082e-07 0
1.0527 -4.55007e-07 0
1.0527 -4.58851e-07 0
1.0527 -4.61872e-07 0
1.0527 -4.61651e-07 0
1.0527 -4.46006e-07 0
1.0527 -3.53719e-07 0