# vtk DataFile Version 2.0
FlowField
ASCII
DATASET STRUCTURED_GRID
DIMENSIONS 102 1 12 
POINTS 1224 double
0 0 0
0.4 0 0
0.8 0 0
1.2 0 0
1.6 0 0
2 0 0
2.4 0 0
2.8 0 0
3.2 0 0
3.6 0 0
4 0 0
4.4 0 0
4.8 0 0
5.2 0 0
5.6 0 0
6 0 0
6.4 0 0
6.8 0 0
7.2 0 0
7.6 0 0
8 0 0
8.4 0 0
8.8 0 0
9.2 0 0
9.6 0 0
10 0 0
10.4 0 0
10.8 0 0
11.2 0 0
11.6 0 0
12 0 0
12.4 0 0
12.8 0 0
13.2 0 0
13.6 0 0
14 0 0
14.4 0 0
14.8 0 0
15.2 0 0
15.6 0 0
16 0 0
16.4 0 0
16.8 0 0
17.2 0 0
17.6 0 0
18 0 0
18.4 0 0
18.8 0 0
19.2 0 0
19.6 0 0
20 0 0
20.4 0 0
20.8 0 0
21.2 0 0
21.6 0 0
22 0 0
22.4 0 0
22.8 0 0
23.2 0 0
23.6 0 0
24 0 0
24.4 0 0
24.8 0 0
25.2 0 0
25.6 0 0
26 0 0
26.4 0 0
26.8 0 0
27.2 0 0
27.6 0 0
28 0 0
28.4 0 0
28.8 0 0
29.2 0 0
29.6 0 0
30 0 0
30.4 0 0
30.8 0 0
31.2 0 0
31.6 0 0
32 0 0
32.4 0 0
32.8 0 0
33.2 0 0
33.6 0 0
34 0 0
34.4 0 0
34.8 0 0
35.2 0 0
35.6 0 0
36 0 0
36.4 0 0
36.8 0 0
37.2 0 0
37.6 0 0
38 0 0
38.4 0 0
38.8 0 0
39.2 0 0
39.6 0 0
40 0 0
40.4 0 0
0 0.1 0
0.4 0.1 0
0.8 0.1 0
1.2 0.1 0
1.6 0.1 0
2 0.1 0
2.4 0.1 0
2.8 0.1 0
3.2 0.1 0
3.6 0.1 0
4 0.1 0
4.4 0.1 0
4.8 0.1 0
5.2 0.1 0
5.6 0.1 0
6 0.1 0
6.4 0.1 0
6.8 0.1 0
7.2 0.1 0
7.6 0.1 0
8 0.1 0
8.4 0.1 0
8.8 0.1 0
9.2 0.1 0
9.6 0.1 0
10 0.1 0
10.4 0.1 0
10.8 0.1 0
11.2 0.1 0
11.6 0.1 0
12 0.1 0
12.4 0.1 0
12.8 0.1 0
13.2 0.1 0
13.6 0.1 0
14 0.1 0
14.4 0.1 0
14.8 0.1 0
15.2 0.1 0
15.6 0.1 0
16 0.1 0
16.4 0.1 0
16.8 0.1 0
17.2 0.1 0
17.6 0.1 0
18 0.1 0
18.4 0.1 0
18.8 0.1 0
19.2 0.1 0
19.6 0.1 0
20 0.1 0
20.4 0.1 0
20.8 0.1 0
21.2 0.1 0
21.6 0.1 0
22 0.1 0
22.4 0.1 0
22.8 0.1 0
23.2 0.1 0
23.6 0.1 0
24 0.1 0
24.4 0.1 0
24.8 0.1 0
25.2 0.1 0
25.6 0.1 0
26 0.1 0
26.4 0.1 0
26.8 0.1 0
27.2 0.1 0
27.6 0.1 0
28 0.1 0
28.4 0.1 0
28.8 0.1 0
29.2 0.1 0
29.6 0.1 0
30 0.1 0
30.4 0.1 0
30.8 0.1 0
31.2 0.1 0
31.6 0.1 0
32 0.1 0
32.4 0.1 0
32.8 0.1 0
33.2 0.1 0
33.6 0.1 0
34 0.1 0
34.4 0.1 0
34.8 0.1 0
35.2 0.1 0
35.6 0.1 0
36 0.1 0
36.4 0.1 0
36.8 0.1 0
37.2 0.1 0
37.6 0.1 0
38 0.1 0
38.4 0.1 0
38.8 0.1 0
39.2 0.1 0
39.6 0.1 0
40 0.1 0
40.4 0.1 0
0 0.2 0
0.4 0.2 0
0.8 0.2 0
1.2 0.2 0
1.6 0.2 0
2 0.2 0
2.4 0.2 0
2.8 0.2 0
3.2 0.2 0
3.6 0.2 0
4 0.2 0
4.4 0.2 0
4.8 0.2 0
5.2 0.2 0
5.6 0.2 0
6 0.2 0
6.4 0.2 0
6.8 0.2 0
7.2 0.2 0
7.6 0.2 0
8 0.2 0
8.4 0.2 0
8.8 0.2 0
9.2 0.2 0
9.6 0.2 0
10 0.2 0
10.4 0.2 0
10.8 0.2 0
11.2 0.2 0
11.6 0.2 0
12 0.2 0
12.4 0.2 0
12.8 0.2 0
13.2 0.2 0
13.6 0.2 0
14 0.2 0
14.4 0.2 0
14.8 0.2 0
15.2 0.2 0
15.6 0.2 0
16 0.2 0
16.4 0.2 0
16.8 0.2 0
17.2 0.2 0
17.6 0.2 0
18 0.2 0
18.4 0.2 0
18.8 0.2 0
19.2 0.2 0
19.6 0.2 0
20 0.2 0
20.4 0.2 0
20.8 0.2 0
21.2 0.2 0
21.6 0.2 0
22 0.2 0
22.4 0.2 0
22.8 0.2 0
23.2 0.2 0
23.6 0.2 0
24 0.2 0
24.4 0.2 0
24.8 0.2 0
25.2 0.2 0
25.6 0.2 0
26 0.2 0
26.4 0.2 0
26.8 0.2 0
27.2 0.2 0
27.6 0.2 0
28 0.2 0
28.4 0.2 0
28.8 0.2 0
29.2 0.2 0
29.6 0.2 0
30 0.2 0
30.4 0.2 0
30.8 0.2 0
31.2 0.2 0
31.6 0.2 0
32 0.2 0
32.4 0.2 0
32.8 0.2 0
33.2 0.2 0
33.6 0.2 0
34 0.2 0
34.4 0.2 0
34.8 0.2 0
35.2 0.2 0
35.6 0.2 0
36 0.2 0
36.4 0.2 0
36.8 0.2 0
37.2 0.2 0
37.6 0.2 0
38 0.2 0
38.4 0.2 0
38.8 0.2 0
39.2 0.2 0
39.6 0.2 0
40 0.2 0
40.4 0.2 0
0 0.3 0
0.4 0.3 0
0.8 0.3 0
1.2 0.3 0
1.6 0.3 0
2 0.3 0
2.4 0.3 0
2.8 0.3 0
3.2 0.3 0
3.6 0.3 0
4 0.3 0
4.4 0.3 0
4.8 0.3 0
5.2 0.3 0
5.6 0.3 0
6 0.3 0
6.4 0.3 0
6.8 0.3 0
7.2 0.3 0
7.6 0.3 0
8 0.3 0
8.4 0.3 0
8.8 0.3 0
9.2 0.3 0
9.6 0.3 0
10 0.3 0
10.4 0.3 0
10.8 0.3 0
11.2 0.3 0
11.6 0.3 0
12 0.3 0
12.4 0.3 0
12.8 0.3 0
13.2 0.3 0
13.6 0.3 0
14 0.3 0
14.4 0.3 0
14.8 0.3 0
15.2 0.3 0
15.6 0.3 0
16 0.3 0
16.4 0.3 0
16.8 0.3 0
17.2 0.3 0
17.6 0.3 0
18 0.3 0
18.4 0.3 0
18.8 0.3 0
19.2 0.3 0
19.6 0.3 0
20 0.3 0
20.4 0.3 0
20.8 0.3 0
21.2 0.3 0
21.6 0.3 0
22 0.3 0
22.4 0.3 0
22.8 0.3 0
23.2 0.3 0
23.6 0.3 0
24 0.3 0
24.4 0.3 0
24.8 0.3 0
25.2 0.3 0
25.6 0.3 0
26 0.3 0
26.4 0.3 0
26.8 0.3 0
27.2 0.3 0
27.6 0.3 0
28 0.3 0
28.4 0.3 0
28.8 0.3 0
29.2 0.3 0
29.6 0.3 0
30 0.3 0
30.4 0.3 0
30.8 0.3 0
31.2 0.3 0
31.6 0.3 0
32 0.3 0
32.4 0.3 0
32.8 0.3 0
33.2 0.3 0
33.6 0.3 0
34 0.3 0
34.4 0.3 0
34.8 0.3 0
35.2 0.3 0
35.6 0.3 0
36 0.3 0
36.4 0.3 0
36.8 0.3 0
37.2 0.3 0
37.6 0.3 0
38 0.3 0
38.4 0.3 0
38.8 0.3 0
39.2 0.3 0
39.6 0.3 0
40 0.3 0
40.4 0.3 0
0 0.4 0
0.4 0.4 0
0.8 0.4 0
1.2 0.4 0
1.6 0.4 0
2 0.4 0
2.4 0.4 0
2.8 0.4 0
3.2 0.4 0
3.6 0.4 0
4 0.4 0
4.4 0.4 0
4.8 0.4 0
5.2 0.4 0
5.6 0.4 0
6 0.4 0
6.4 0.4 0
6.8 0.4 0
7.2 0.4 0
7.6 0.4 0
8 0.4 0
8.4 0.4 0
8.8 0.4 0
9.2 0.4 0
9.6 0.4 0
10 0.4 0
10.4 0.4 0
10.8 0.4 0
11.2 0.4 0
11.6 0.4 0
12 0.4 0
12.4 0.4 0
12.8 0.4 0
13.2 0.4 0
13.6 0.4 0
14 0.4 0
14.4 0.4 0
14.8 0.4 0
15.2 0.4 0
15.6 0.4 0
16 0.4 0
16.4 0.4 0
16.8 0.4 0
17.2 0.4 0
17.6 0.4 0
18 0.4 0
18.4 0.4 0
18.8 0.4 0
19.2 0.4 0
19.6 0.4 0
20 0.4 0
20.4 0.4 0
20.8 0.4 0
21.2 0.4 0
21.6 0.4 0
22 0.4 0
22.4 0.4 0
22.8 0.4 0
23.2 0.4 0
23.6 0.4 0
24 0.4 0
24.4 0.4 0
24.8 0.4 0
25.2 0.4 0
25.6 0.4 0
26 0.4 0
26.4 0.4 0
26.8 0.4 0
27.2 0.4 0
27.6 0.4 0
28 0.4 0
28.4 0.4 0
28.8 0.4 0
29.2 0.4 0
29.6 0.4 0
30 0.4 0
30.4 0.4 0
30.8 0.4 0
31.2 0.4 0
31.6 0.4 0
32 0.4 0
32.4 0.4 0
32.8 0.4 0
33.2 0.4 0
33.6 0.4 0
34 0.4 0
34.4 0.4 0
34.8 0.4 0
35.2 0.4 0
35.6 0.4 0
36 0.4 0
36.4 0.4 0
36.8 0.4 0
37.2 0.4 0
37.6 0.4 0
38 0.4 0
38.4 0.4 0
38.8 0.4 0
39.2 0.4 0
39.6 0.4 0
40 0.4 0
40.4 0.4 0
0 0.5 0
0.4 0.5 0
0.8 0.5 0
1.2 0.5 0
1.6 0.5 0
2 0.5 0
2.4 0.5 0
2.8 0.5 0
3.2 0.5 0
3.6 0.5 0
4 0.5 0
4.4 0.5 0
4.8 0.5 0
5.2 0.5 0
5.6 0.5 0
6 0.5 0
6.4 0.5 0
6.8 0.5 0
7.2 0.5 0
7.6 0.5 0
8 0.5 0
8.4 0.5 0
8.8 0.5 0
9.2 0.5 0
9.6 0.5 0
10 0.5 0
10.4 0.5 0
10.8 0.5 0
11.2 0.5 0
11.6 0.5 0
12 0.5 0
12.4 0.5 0
12.8 0.5 0
13.2 0.5 0
13.6 0.5 0
14 0.5 0
14.4 0.5 0
14.8 0.5 0
15.2 0.5 0
15.6 0.5 0
16 0.5 0
16.4 0.5 0
16.8 0.5 0
17.2 0.5 0
17.6 0.5 0
18 0.5 0
18.4 0.5 0
18.8 0.5 0
19.2 0.5 0
19.6 0.5 0
20 0.5 0
20.4 0.5 0
20.8 0.5 0
21.2 0.5 0
21.6 0.5 0
22 0.5 0
22.4 0.5 0
22.8 0.5 0
23.2 0.5 0
23.6 0.5 0
24 0.5 0
24.4 0.5 0
24.8 0.5 0
25.2 0.5 0
25.6 0.5 0
26 0.5 0
26.4 0.5 0
26.8 0.5 0
27.2 0.5 0
27.6 0.5 0
28 0.5 0
28.4 0.5 0
28.8 0.5 0
29.2 0.5 0
29.6 0.5 0
30 0.5 0
30.4 0.5 0
30.8 0.5 0
31.2 0.5 0
31.6 0.5 0
32 0.5 0
32.4 0.5 0
32.8 0.5 0
33.2 0.5 0
33.6 0.5 0
34 0.5 0
34.4 0.5 0
34.8 0.5 0
35.2 0.5 0
35.6 0.5 0
36 0.5 0
36.4 0.5 0
36.8 0.5 0
37.2 0.5 0
37.6 0.5 0
38 0.5 0
38.4 0.5 0
38.8 0.5 0
39.2 0.5 0
39.6 0.5 0
40 0.5 0
40.4 0.5 0
0 0.6 0
0.4 0.6 0
0.8 0.6 0
1.2 0.6 0
1.6 0.6 0
2 0.6 0
2.4 0.6 0
2.8 0.6 0
3.2 0.6 0
3.6 0.6 0
4 0.6 0
4.4 0.6 0
4.8 0.6 0
5.2 0.6 0
5.6 0.6 0
6 0.6 0
6.4 0.6 0
6.8 0.6 0
7.2 0.6 0
7.6 0.6 0
8 0.6 0
8.4 0.6 0
8.8 0.6 0
9.2 0.6 0
9.6 0.6 0
10 0.6 0
10.4 0.6 0
10.8 0.6 0
11.2 0.6 0
11.6 0.6 0
12 0.6 0
12.4 0.6 0
12.8 0.6 0
13.2 0.6 0
13.6 0.6 0
14 0.6 0
14.4 0.6 0
14.8 0.6 0
15.2 0.6 0
15.6 0.6 0
16 0.6 0
16.4 0.6 0
16.8 0.6 0
17.2 0.6 0
17.6 0.6 0
18 0.6 0
18.4 0.6 0
18.8 0.6 0
19.2 0.6 0
19.6 0.6 0
20 0.6 0
20.4 0.6 0
20.8 0.6 0
21.2 0.6 0
21.6 0.6 0
22 0.6 0
22.4 0.6 0
22.8 0.6 0
23.2 0.6 0
23.6 0.6 0
24 0.6 0
24.4 0.6 0
24.8 0.6 0
25.2 0.6 0
25.6 0.6 0
26 0.6 0
26.4 0.6 0
26.8 0.6 0
27.2 0.6 0
27.6 0.6 0
28 0.6 0
28.4 0.6 0
28.8 0.6 0
29.2 0.6 0
29.6 0.6 0
30 0.6 0
30.4 0.6 0
30.8 0.6 0
31.2 0.6 0
31.6 0.6 0
32 0.6 0
32.4 0.6 0
32.8 0.6 0
33.2 0.6 0
33.6 0.6 0
34 0.6 0
34.4 0.6 0
34.8 0.6 0
35.2 0.6 0
35.6 0.6 0
36 0.6 0
36.4 0.6 0
36.8 0.6 0
37.2 0.6 0
37.6 0.6 0
38 0.6 0
38.4 0.6 0
38.8 0.6 0
39.2 0.6 0
39.6 0.6 0
40 0.6 0
40.4 0.6 0
0 0.7 0
0.4 0.7 0
0.8 0.7 0
1.2 0.7 0
1.6 0.7 0
2 0.7 0
2.4 0.7 0
2.8 0.7 0
3.2 0.7 0
3.6 0.7 0
4 0.7 0
4.4 0.7 0
4.8 0.7 0
5.2 0.7 0
5.6 0.7 0
6 0.7 0
6.4 0.7 0
6.8 0.7 0
7.2 0.7 0
7.6 0.7 0
8 0.7 0
8.4 0.7 0
8.8 0.7 0
9.2 0.7 0
9.6 0.7 0
10 0.7 0
10.4 0.7 0
10.8 0.7 0
11.2 0.7 0
11.6 0.7 0
12 0.7 0
12.4 0.7 0
12.8 0.7 0
13.2 0.7 0
13.6 0.7 0
14 0.7 0
14.4 0.7 0
14.8 0.7 0
15.2 0.7 0
15.6 0.7 0
16 0.7 0
16.4 0.7 0
16.8 0.7 0
17.2 0.7 0
17.6 0.7 0
18 0.7 0
18.4 0.7 0
18.8 0.7 0
19.2 0.7 0
19.6 0.7 0
20 0.7 0
20.4 0.7 0
20.8 0.7 0
21.2 0.7 0
21.6 0.7 0
22 0.7 0
22.4 0.7 0
22.8 0.7 0
23.2 0.7 0
23.6 0.7 0
24 0.7 0
24.4 0.7 0
24.8 0.7 0
25.2 0.7 0
25.6 0.7 0
26 0.7 0
26.4 0.7 0
26.8 0.7 0
27.2 0.7 0
27.6 0.7 0
28 0.7 0
28.4 0.7 0
28.8 0.7 0
29.2 0.7 0
29.6 0.7 0
30 0.7 0
30.4 0.7 0
30.8 0.7 0
31.2 0.7 0
31.6 0.7 0
32 0.7 0
32.4 0.7 0
32.8 0.7 0
33.2 0.7 0
33.6 0.7 0
34 0.7 0
34.4 0.7 0
34.8 0.7 0
35.2 0.7 0
35.6 0.7 0
36 0.7 0
36.4 0.7 0
36.8 0.7 0
37.2 0.7 0
37.6 0.7 0
38 0.7 0
38.4 0.7 0
38.8 0.7 0
39.2 0.7 0
39.6 0.7 0
40 0.7 0
40.4 0.7 0
0 0.8 0
0.4 0.8 0
0.8 0.8 0
1.2 0.8 0
1.6 0.8 0
2 0.8 0
2.4 0.8 0
2.8 0.8 0
3.2 0.8 0
3.6 0.8 0
4 0.8 0
4.4 0.8 0
4.8 0.8 0
5.2 0.8 0
5.6 0.8 0
6 0.8 0
6.4 0.8 0
6.8 0.8 0
7.2 0.8 0
7.6 0.8 0
8 0.8 0
8.4 0.8 0
8.8 0.8 0
9.2 0.8 0
9.6 0.8 0
10 0.8 0
10.4 0.8 0
10.8 0.8 0
11.2 0.8 0
11.6 0.8 0
12 0.8 0
12.4 0.8 0
12.8 0.8 0
13.2 0.8 0
13.6 0.8 0
14 0.8 0
14.4 0.8 0
14.8 0.8 0
15.2 0.8 0
15.6 0.8 0
16 0.8 0
16.4 0.8 0
16.8 0.8 0
17.2 0.8 0
17.6 0.8 0
18 0.8 0
18.4 0.8 0
18.8 0.8 0
19.2 0.8 0
19.6 0.8 0
20 0.8 0
20.4 0.8 0
20.8 0.8 0
21.2 0.8 0
21.6 0.8 0
22 0.8 0
22.4 0.8 0
22.8 0.8 0
23.2 0.8 0
23.6 0.8 0
24 0.8 0
24.4 0.8 0
24.8 0.8 0
25.2 0.8 0
25.6 0.8 0
26 0.8 0
26.4 0.8 0
26.8 0.8 0
27.2 0.8 0
27.6 0.8 0
28 0.8 0
28.4 0.8 0
28.8 0.8 0
29.2 0.8 0
29.6 0.8 0
30 0.8 0
30.4 0.8 0
30.8 0.8 0
31.2 0.8 0
31.6 0.8 0
32 0.8 0
32.4 0.8 0
32.8 0.8 0
33.2 0.8 0
33.6 0.8 0
34 0.8 0
34.4 0.8 0
34.8 0.8 0
35.2 0.8 0
35.6 0.8 0
36 0.8 0
36.4 0.8 0
36.8 0.8 0
37.2 0.8 0
37.6 0.8 0
38 0.8 0
38.4 0.8 0
38.8 0.8 0
39.2 0.8 0
39.6 0.8 0
40 0.8 0
40.4 0.8 0
0 0.9 0
0.4 0.9 0
0.8 0.9 0
1.2 0.9 0
1.6 0.9 0
2 0.9 0
2.4 0.9 0
2.8 0.9 0
3.2 0.9 0
3.6 0.9 0
4 0.9 0
4.4 0.9 0
4.8 0.9 0
5.2 0.9 0
5.6 0.9 0
6 0.9 0
6.4 0.9 0
6.8 0.9 0
7.2 0.9 0
7.6 0.9 0
8 0.9 0
8.4 0.9 0
8.8 0.9 0
9.2 0.9 0
9.6 0.9 0
10 0.9 0
10.4 0.9 0
10.8 0.9 0
11.2 0.9 0
11.6 0.9 0
12 0.9 0
12.4 0.9 0
12.8 0.9 0
13.2 0.9 0
13.6 0.9 0
14 0.9 0
14.4 0.9 0
14.8 0.9 0
15.2 0.9 0
15.6 0.9 0
16 0.9 0
16.4 0.9 0
16.8 0.9 0
17.2 0.9 0
17.6 0.9 0
18 0.9 0
18.4 0.9 0
18.8 0.9 0
19.2 0.9 0
19.6 0.9 0
20 0.9 0
20.4 0.9 0
20.8 0.9 0
21.2 0.9 0
21.6 0.9 0
22 0.9 0
22.4 0.9 0
22.8 0.9 0
23.2 0.9 0
23.6 0.9 0
24 0.9 0
24.4 0.9 0
24.8 0.9 0
25.2 0.9 0
25.6 0.9 0
26 0.9 0
26.4 0.9 0
26.8 0.9 0
27.2 0.9 0
27.6 0.9 0
28 0.9 0
28.4 0.9 0
28.8 0.9 0
29.2 0.9 0
29.6 0.9 0
30 0.9 0
30.4 0.9 0
30.8 0.9 0
31.2 0.9 0
31.6 0.9 0
32 0.9 0
32.4 0.9 0
32.8 0.9 0
33.2 0.9 0
33.6 0.9 0
34 0.9 0
34.4 0.9 0
34.8 0.9 0
35.2 0.9 0
35.6 0.9 0
36 0.9 0
36.4 0.9 0
36.8 0.9 0
37.2 0.9 0
37.6 0.9 0
38 0.9 0
38.4 0.9 0
38.8 0.9 0
39.2 0.9 0
39.6 0.9 0
40 0.9 0
40.4 0.9 0
0 1 0
0.4 1 0
0.8 1 0
1.2 1 0
1.6 1 0
2 1 0
2.4 1 0
2.8 1 0
3.2 1 0
3.6 1 0
4 1 0
4.4 1 0
4.8 1 0
5.2 1 0
5.6 1 0
6 1 0
6.4 1 0
6.8 1 0
7.2 1 0
7.6 1 0
8 1 0
8.4 1 0
8.8 1 0
9.2 1 0
9.6 1 0
10 1 0
10.4 1 0
10.8 1 0
11.2 1 0
11.6 1 0
12 1 0
12.4 1 0
12.8 1 0
13.2 1 0
13.6 1 0
14 1 0
14.4 1 0
14.8 1 0
15.2 1 0
15.6 1 0
16 1 0
16.4 1 0
16.8 1 0
17.2 1 0
17.6 1 0
18 1 0
18.4 1 0
18.8 1 0
19.2 1 0
19.6 1 0
20 1 0
20.4 1 0
20.8 1 0
21.2 1 0
21.6 1 0
22 1 0
22.4 1 0
22.8 1 0
23.2 1 0
23.6 1 0
24 1 0
24.4 1 0
24.8 1 0
25.2 1 0
25.6 1 0
26 1 0
26.4 1 0
26.8 1 0
27.2 1 0
27.6 1 0
28 1 0
28.4 1 0
28.8 1 0
29.2 1 0
29.6 1 0
30 1 0
30.4 1 0
30.8 1 0
31.2 1 0
31.6 1 0
32 1 0
32.4 1 0
32.8 1 0
33.2 1 0
33.6 1 0
34 1 0
34.4 1 0
34.8 1 0
35.2 1 0
35.6 1 0
36 1 0
36.4 1 0
36.8 1 0
37.2 1 0
37.6 1 0
38 1 0
38.4 1 0
38.8 1 0
39.2 1 0
39.6 1 0
40 1 0
40.4 1 0
0 1.1 0
0.4 1.1 0
0.8 1.1 0
1.2 1.1 0
1.6 1.1 0
2 1.1 0
2.4 1.1 0
2.8 1.1 0
3.2 1.1 0
3.6 1.1 0
4 1.1 0
4.4 1.1 0
4.8 1.1 0
5.2 1.1 0
5.6 1.1 0
6 1.1 0
6.4 1.1 0
6.8 1.1 0
7.2 1.1 0
7.6 1.1 0
8 1.1 0
8.4 1.1 0
8.8 1.1 0
9.2 1.1 0
9.6 1.1 0
10 1.1 0
10.4 1.1 0
10.8 1.1 0
11.2 1.1 0
11.6 1.1 0
12 1.1 0
12.4 1.1 0
12.8 1.1 0
13.2 1.1 0
13.6 1.1 0
14 1.1 0
14.4 1.1 0
14.8 1.1 0
15.2 1.1 0
15.6 1.1 0
16 1.1 0
16.4 1.1 0
16.8 1.1 0
17.2 1.1 0
17.6 1.1 0
18 1.1 0
18.4 1.1 0
18.8 1.1 0
19.2 1.1 0
19.6 1.1 0
20 1.1 0
20.4 1.1 0
20.8 1.1 0
21.2 1.1 0
21.6 1.1 0
22 1.1 0
22.4 1.1 0
22.8 1.1 0
23.2 1.1 0
23.6 1.1 0
24 1.1 0
24.4 1.1 0
24.8 1.1 0
25.2 1.1 0
25.6 1.1 0
26 1.1 0
26.4 1.1 0
26.8 1.1 0
27.2 1.1 0
27.6 1.1 0
28 1.1 0
28.4 1.1 0
28.8 1.1 0
29.2 1.1 0
29.6 1.1 0
30 1.1 0
30.4 1.1 0
30.8 1.1 0
31.2 1.1 0
31.6 1.1 0
32 1.1 0
32.4 1.1 0
32.8 1.1 0
33.2 1.1 0
33.6 1.1 0
34 1.1 0
34.4 1.1 0
34.8 1.1 0
35.2 1.1 0
35.6 1.1 0
36 1.1 0
36.4 1.1 0
36.8 1.1 0
37.2 1.1 0
37.6 1.1 0
38 1.1 0
38.4 1.1 0
38.8 1.1 0
39.2 1.1 0
39.6 1.1 0
40 1.1 0
40.4 1.1 0

POINT_DATA 1224

SCALARS v double
LOOKUP_TABLE default
0
0
0
0
0
0
0
0
0
0
0
0
0
0
0
0
0
0
0
0
0
0
0
0
0
0
0
0
0
0
0
0
0
0
0
0
0
0
0
0
0
0
0
0
0
0
0
0
0
0
0
0
0
0
0
0
0
0
0
0
0
0
0
0
0
0
0
0
0
0
0
0
0
0
0
0
0
0
0
0
0
0
0
0
0
0
0
0
0
0
0
0
0
0
0
0
0
0
0
0
0
0
0
0.0787076
0.0554407
0.0327104
0.0178114
0.0096583
0.00557771
0.00354711
0.00247032
0.00183779
0.00142582
0.00113509
0.000918517
0.000751473
0.000619634
0.0005139
0.000428097
0.000357839
0.000299907
0.000251881
0.000211901
0.000178509
0.000150543
0.000127055
0.00010726
9.05013e-05
7.62311e-05
6.39985e-05
5.34436e-05
4.42911e-05
3.63394e-05
2.94467e-05
2.35136e-05
1.84656e-05
1.42379e-05
1.07642e-05
7.97146e-06
5.77848e-06
4.09867e-06
2.84446e-06
1.93203e-06
1.28532e-06
8.38713e-07
5.38129e-07
3.40887e-07
2.14631e-07
1.35735e-07
8.75586e-08
5.8772e-08
4.19103e-08
3.21936e-08
2.66252e-08
2.34035e-08
2.15002e-08
2.03174e-08
1.95103e-08
1.88901e-08
1.83591e-08
1.78694e-08
1.73984e-08
1.69359e-08
1.64771e-08
1.602e-08
1.55636e-08
1.51075e-08
1.46517e-08
1.41959e-08
1.37402e-08
1.32846e-08
1.28291e-08
1.23737e-08
1.19184e-08
1.14632e-08
1.10082e-08
1.05534e-08
1.00987e-08
9.6443e-09
9.19018e-09
8.73644e-09
8.28313e-09
7.83039e-09
7.37869e-09
6.92784e-09
6.47753e-09
6.02712e-09
5.57618e-09
5.12535e-09
4.67515e-09
4.22644e-09
3.77583e-09
3.33951e-09
2.85831e-09
2.51861e-09
1.67569e-09
2.46816e-09
-2.27409e-09
8.42339e-09
-3.1783e-08
4.6388e-08
-1.62412e-07
-4.975e-07
-4.975e-07
0
0.0668416
0.060839
0.042293
0.0271276
0.0175004
0.0118522
0.0084921
0.00637033
0.00493629
0.0039108
0.00314667
0.00256045
0.00210112
0.00173543
0.00144067
0.00120073
0.00100389
0.0008414
0.000706603
0.000594348
0.000500575
0.000422027
0.000356046
0.000300428
0.000253331
0.00021322
0.000178837
0.00014918
0.000123482
0.00010118
8.18757e-05
6.52864e-05
5.11967e-05
3.94172e-05
2.97553e-05
2.19999e-05
1.59191e-05
1.12678e-05
7.79942e-06
5.27928e-06
3.4952e-06
2.26461e-06
1.4374e-06
8.95357e-07
5.48968e-07
3.32991e-07
2.01519e-07
1.23338e-07
7.78972e-08
5.20489e-08
3.75719e-08
2.95261e-08
2.50829e-08
2.26025e-08
2.1144e-08
2.01937e-08
1.94855e-08
1.88892e-08
1.83434e-08
1.78205e-08
1.73077e-08
1.67995e-08
1.62935e-08
1.57885e-08
1.52842e-08
1.47804e-08
1.4277e-08
1.3774e-08
1.32715e-08
1.27695e-08
1.22679e-08
1.17669e-08
1.12664e-08
1.07666e-08
1.02674e-08
9.76902e-09
9.27151e-09
8.77504e-09
8.27977e-09
7.78595e-09
7.29475e-09
6.80583e-09
6.31856e-09
5.83153e-09
5.34386e-09
4.8571e-09
4.37271e-09
3.89104e-09
3.40613e-09
2.9402e-09
2.40746e-09
2.09613e-09
1.01044e-09
2.38954e-09
-5.34219e-09
1.48152e-08
-6.70344e-08
1.12217e-07
-8.298e-07
-1.42177e-06
-1.42177e-06
0
0.0434614
0.0450425
0.0342517
0.0238914
0.0167607
0.0122648
0.00937333
0.0073933
0.00595022
0.00484991
0.00398642
0.00329629
0.00273792
0.00228217
0.00190766
0.00159823
0.00134147
0.00112765
0.00094909
0.000799633
0.000674296
0.000568998
0.000480351
0.000405511
0.000342078
0.000288036
0.00024172
0.00020179
0.000167212
0.000137216
0.000111251
8.89223e-05
6.99301e-05
5.40165e-05
4.09251e-05
3.0379e-05
2.20758e-05
1.56951e-05
1.09136e-05
7.42087e-06
4.93469e-06
3.21008e-06
2.04409e-06
1.27558e-06
7.81583e-07
4.71776e-07
2.82112e-07
1.6872e-07
1.02506e-07
6.47293e-08
4.35593e-08
3.18307e-08
2.54306e-08
2.19564e-08
2.00154e-08
1.88395e-08
1.80281e-08
1.73847e-08
1.6817e-08
1.62832e-08
1.57646e-08
1.5253e-08
1.47448e-08
1.42384e-08
1.37333e-08
1.32292e-08
1.27259e-08
1.22236e-08
1.17222e-08
1.12217e-08
1.07221e-08
1.02237e-08
9.72628e-09
9.23009e-09
8.7352e-09
8.24173e-09
7.74983e-09
7.25978e-09
6.77181e-09
6.28629e-09
5.80507e-09
5.32782e-09
4.85375e-09
4.38077e-09
3.90745e-09
3.43599e-09
2.9689e-09
2.50544e-09
2.03894e-09
1.58397e-09
1.07506e-09
7.6075e-10
-2.5607e-10
1.05091e-09
-6.79148e-09
1.58513e-08
-8.08575e-08
1.58444e-07
-1.275e-06
-1.88508e-06
-1.88508e-06
0
0.0210569
0.0230875
0.0183629
0.0133674
0.00978216
0.0074449
0.00588656
0.00477601
0.00393347
0.00326684
0.00272648
0.00228252
0.00191492
0.00160906
0.0013537
0.00113997
0.000960752
0.000810241
0.000683692
0.00057719
0.000487489
0.000411869
0.000348036
0.000294036
0.000248204
0.000209126
0.000175624
0.000146744
0.00012174
0.000100051
8.12723e-05
6.51107e-05
5.13449e-05
3.97864e-05
3.02517e-05
2.2545e-05
1.64537e-05
1.17524e-05
8.21253e-06
5.61362e-06
3.75362e-06
2.45607e-06
1.57363e-06
9.88431e-07
6.09881e-07
3.70894e-07
2.23553e-07
1.34805e-07
8.26074e-08
5.26582e-08
3.57656e-08
2.62963e-08
2.108e-08
1.82358e-08
1.66378e-08
1.56545e-08
1.4956e-08
1.43832e-08
1.38645e-08
1.33691e-08
1.28841e-08
1.24041e-08
1.1927e-08
1.14516e-08
1.09778e-08
1.05053e-08
1.00341e-08
9.56425e-09
9.0957e-09
8.62851e-09
8.16275e-09
7.69848e-09
7.23579e-09
6.77479e-09
6.31559e-09
5.85836e-09
5.40328e-09
4.95069e-09
4.50096e-09
4.05434e-09
3.61336e-09
3.17808e-09
2.74778e-09
2.31974e-09
1.89179e-09
1.46653e-09
1.04737e-09
6.32774e-10
2.13884e-10
-2.15073e-10
-6.63772e-10
-1.00071e-09
-1.73269e-09
-9.69045e-10
-6.05086e-09
9.39477e-09
-5.71852e-08
1.19823e-07
-9.50475e-07
-1.34307e-06
-1.34307e-06
0
3.07847e-08
4.58259e-08
4.89477e-08
4.70562e-08
4.4425e-08
4.23558e-08
4.08091e-08
3.95334e-08
3.83987e-08
3.73821e-08
3.64953e-08
3.57345e-08
3.50611e-08
3.44036e-08
3.3673e-08
3.27867e-08
3.16928e-08
3.03879e-08
2.89225e-08
2.73906e-08
2.59058e-08
2.45721e-08
2.34605e-08
2.25991e-08
2.19778e-08
2.15623e-08
2.1309e-08
2.11752e-08
2.11229e-08
2.11187e-08
2.11317e-08
2.1134e-08
2.11009e-08
2.10133e-08
2.08597e-08
2.06363e-08
2.03461e-08
1.99961e-08
1.95951e-08
1.91522e-08
1.86754e-08
1.81716e-08
1.76453e-08
1.70966e-08
1.65167e-08
1.58867e-08
1.5195e-08
1.44825e-08
1.38874e-08
1.35575e-08
1.33217e-08
1.29812e-08
1.26426e-08
1.23516e-08
1.20703e-08
1.17632e-08
1.14162e-08
1.10341e-08
1.06285e-08
1.02099e-08
9.7851e-09
9.35814e-09
8.93101e-09
8.50464e-09
8.07948e-09
7.6557e-09
7.2334e-09
6.8126e-09
6.39335e-09
5.97569e-09
5.55968e-09
5.14539e-09
4.73293e-09
4.32239e-09
3.91391e-09
3.50765e-09
3.1038e-09
2.7027e-09
2.3049e-09
1.91036e-09
1.52173e-09
1.1415e-09
7.68695e-10
3.99291e-10
2.9904e-11
-3.3697e-10
-6.96137e-10
-1.05225e-09
-1.41223e-09
-1.77764e-09
-2.14108e-09
-2.49287e-09
-2.8347e-09
-3.11641e-09
-3.36945e-09
-3.307e-09
-3.21215e-09
-2.7414e-09
-2.30599e-09
-4.30757e-10
-4.30757e-10
0
-0.0210569
-0.0230874
-0.0183628
-0.0133673
-0.00978207
-0.00744482
-0.00588648
-0.00477594
-0.00393339
-0.00326677
-0.00272641
-0.00228245
-0.00191486
-0.00160899
-0.00135363
-0.00113991
-0.000960691
-0.000810183
-0.000683636
-0.000577137
-0.000487438
-0.000411821
-0.000347989
-0.000293991
-0.00024816
-0.000209083
-0.000175581
-0.000146702
-0.000121697
-0.000100008
-8.12296e-05
-6.5068e-05
-5.13022e-05
-3.97439e-05
-3.02094e-05
-2.25031e-05
-1.64124e-05
-1.17118e-05
-8.17268e-06
-5.57462e-06
-3.71555e-06
-2.41897e-06
-1.53754e-06
-9.53413e-07
-5.75978e-07
-3.3819e-07
-1.9217e-07
-1.04822e-07
-5.38478e-08
-2.45933e-08
-8.12042e-09
8.57214e-10
5.41631e-09
7.58422e-09
8.51494e-09
8.8043e-09
8.7581e-09
8.53844e-09
8.23218e-09
7.88483e-09
7.51923e-09
7.14633e-09
6.77113e-09
6.39585e-09
6.02142e-09
5.64821e-09
5.27636e-09
4.90594e-09
4.537e-09
4.16956e-09
3.80369e-09
3.43946e-09
3.07695e-09
2.71625e-09
2.35748e-09
2.0008e-09
1.64639e-09
1.29449e-09
9.45883e-10
6.00292e-10
2.581e-10
-6.46677e-11
-3.77901e-10
-6.89873e-10
-1.00417e-09
-1.31832e-09
-1.62459e-09
-1.92914e-09
-2.23658e-09
-2.55819e-09
-2.84456e-09
-3.24166e-09
-3.15776e-09
-4.64531e-09
9.20174e-11
-1.55545e-08
5.14281e-08
-1.24935e-07
9.46239e-07
1.34225e-06
1.34225e-06
0
-0.0434614
-0.0450424
-0.0342517
-0.0238913
-0.0167606
-0.0122647
-0.00937326
-0.00739324
-0.00595015
-0.00484985
-0.00398636
-0.00329622
-0.00273786
-0.00228212
-0.0019076
-0.00159817
-0.00134141
-0.0011276
-0.000949038
-0.000799582
-0.000674247
-0.000568952
-0.000480306
-0.000405467
-0.000342034
-0.000287993
-0.000241677
-0.000201747
-0.000167169
-0.000137173
-0.000111208
-8.88784e-05
-6.98862e-05
-5.39727e-05
-4.08815e-05
-3.03357e-05
-2.20329e-05
-1.56529e-05
-1.0872e-05
-7.38004e-06
-4.89469e-06
-3.17097e-06
-2.00592e-06
-1.23837e-06
-7.4538e-07
-4.36624e-07
-2.48101e-07
-1.35994e-07
-7.10509e-08
-3.40213e-08
-1.32227e-08
-1.8537e-09
3.96238e-09
6.60708e-09
7.70501e-09
8.05491e-09
8.03977e-09
7.8475e-09
7.57149e-09
7.25751e-09
6.92731e-09
6.5908e-09
6.25236e-09
5.91382e-09
5.57592e-09
5.23894e-09
4.903e-09
4.56814e-09
4.23437e-09
3.90175e-09
3.57031e-09
3.24011e-09
2.91121e-09
2.58369e-09
2.25763e-09
1.93317e-09
1.61044e-09
1.28964e-09
9.7139e-10
6.55997e-10
3.41037e-10
4.34224e-11
-2.35015e-10
-5.15164e-10
-7.99892e-10
-1.08756e-09
-1.36707e-09
-1.64196e-09
-1.91716e-09
-2.21835e-09
-2.45416e-09
-2.91111e-09
-2.52553e-09
-4.84043e-09
2.74438e-09
-2.04168e-08
7.67008e-08
-1.62358e-07
1.27182e-06
1.88435e-06
1.88435e-06
0
-0.0668415
-0.0608389
-0.0422929
-0.0271275
-0.0175004
-0.0118521
-0.00849204
-0.00637027
-0.00493623
-0.00391075
-0.00314662
-0.0025604
-0.00210107
-0.00173538
-0.00144062
-0.00120068
-0.00100384
-0.000841351
-0.000706555
-0.000594301
-0.000500529
-0.000421982
-0.000356002
-0.000300384
-0.000253287
-0.000213176
-0.000178793
-0.000149136
-0.000123437
-0.000101135
-8.18306e-05
-6.52411e-05
-5.11513e-05
-3.93718e-05
-2.97099e-05
-2.19547e-05
-1.58742e-05
-1.12234e-05
-7.75553e-06
-5.23602e-06
-3.45265e-06
-2.22282e-06
-1.39643e-06
-8.55225e-07
-5.09703e-07
-2.94601e-07
-1.64021e-07
-8.68351e-08
-4.25568e-08
-1.75422e-08
-3.21927e-09
4.36188e-09
7.80481e-09
9.27426e-09
9.79373e-09
9.8614e-09
9.71287e-09
9.46155e-09
9.16266e-09
8.84269e-09
8.51391e-09
8.1818e-09
7.84869e-09
7.51556e-09
7.18278e-09
6.8505e-09
6.51876e-09
6.1876e-09
5.85702e-09
5.52706e-09
5.19773e-09
4.86909e-09
4.54115e-09
4.21399e-09
3.88764e-09
3.5622e-09
3.23777e-09
2.91447e-09
2.59275e-09
2.27284e-09
1.95331e-09
1.63631e-09
1.32818e-09
1.02548e-09
7.22764e-10
4.17378e-10
1.23437e-10
-1.39522e-10
-4.1251e-10
-7.2292e-10
-9.62666e-10
-1.45693e-09
-1.06404e-09
-3.39188e-09
3.81322e-09
-1.69978e-08
6.49155e-08
-1.14451e-07
8.27978e-07
1.42116e-06
1.42116e-06
0
-0.0787075
-0.0554406
-0.0327103
-0.0178113
-0.00965826
-0.00557766
-0.00354707
-0.00247028
-0.00183774
-0.00142577
-0.00113504
-0.000918471
-0.000751426
-0.000619588
-0.000513854
-0.000428051
-0.000357793
-0.000299862
-0.000251836
-0.000211856
-0.000178465
-0.000150498
-0.00012701
-0.000107215
-9.04566e-05
-7.61863e-05
-6.39535e-05
-5.33984e-05
-4.42455e-05
-3.62935e-05
-2.94005e-05
-2.34671e-05
-1.8419e-05
-1.41911e-05
-1.07174e-05
-7.92467e-06
-5.73185e-06
-4.05233e-06
-2.7985e-06
-1.88655e-06
-1.2404e-06
-7.94428e-07
-4.94534e-07
-2.98025e-07
-1.7253e-07
-9.44029e-08
-4.69651e-08
-1.87641e-08
-2.09366e-09
6.73388e-09
1.11029e-08
1.32442e-08
1.41637e-08
1.44174e-08
1.43394e-08
1.41031e-08
1.37911e-08
1.34429e-08
1.30781e-08
1.27058e-08
1.23305e-08
1.19539e-08
1.15768e-08
1.11997e-08
1.08226e-08
1.04456e-08
1.00687e-08
9.69199e-09
9.31538e-09
8.93892e-09
8.56263e-09
8.18652e-09
7.8106e-09
7.43491e-09
7.05948e-09
6.68435e-09
6.30958e-09
5.93525e-09
5.56155e-09
5.18863e-09
4.81571e-09
4.442e-09
4.07149e-09
3.70374e-09
3.33629e-09
2.96754e-09
2.60137e-09
2.23986e-09
1.88269e-09
1.51044e-09
1.16743e-09
7.12692e-10
6.61626e-10
-6.19018e-10
2.95756e-09
-8.23986e-09
3.14492e-08
-4.70494e-08
1.61704e-07
4.97012e-07
4.97012e-07
0
0
0
0
0
0
0
0
0
0
0
0
0
0
0
0
0
0
0
0
0
0
0
0
0
0
0
0
0
0
0
0
0
0
0
0
0
0
0
0
0
0
0
0
0
0
0
0
0
0
0
0
0
0
0
0
0
0
0
0
0
0
0
0
0
0
0
0
0
0
0
0
0
0
0
0
0
0
0
0
0
0
0
0
0
0
0
0
0
0
0
0
0
0
0
0
0
0
0
0
0
0
0
0
0
0
0
0
0
0
0
0
0
0
0
0
0
0
0
0
0
0
0
0
0
0
0
0
0
0
0
0
0
0
0
0
0
0
0
0
0
0
0
0
0
0
0
0
0
0
0
0
0
0
0
0
0
0
0
0
0
0
0
0
0
0
0
0
0
0
0
0
0
0
0
0
0
0
0
0
0
0
0
0
0
0
0
0
0
0
0
0
0
0
0
0
0
0
0
0
0
0
0
0
