# vtk DataFile Version 2.0
FlowField
ASCII
DATASET STRUCTURED_GRID
DIMENSIONS 102 13 1 
POINTS 1326 double
0 0 0
0.3 0 0
0.6 0 0
0.9 0 0
1.2 0 0
1.5 0 0
1.8 0 0
2.1 0 0
2.4 0 0
2.7 0 0
3 0 0
3.3 0 0
3.6 0 0
3.9 0 0
4.2 0 0
4.5 0 0
4.8 0 0
5.1 0 0
5.4 0 0
5.7 0 0
6 0 0
6.3 0 0
6.6 0 0
6.9 0 0
7.2 0 0
7.5 0 0
7.8 0 0
8.1 0 0
8.4 0 0
8.7 0 0
9 0 0
9.3 0 0
9.6 0 0
9.9 0 0
10.2 0 0
10.5 0 0
10.8 0 0
11.1 0 0
11.4 0 0
11.7 0 0
12 0 0
12.3 0 0
12.6 0 0
12.9 0 0
13.2 0 0
13.5 0 0
13.8 0 0
14.1 0 0
14.4 0 0
14.7 0 0
15 0 0
15.3 0 0
15.6 0 0
15.9 0 0
16.2 0 0
16.5 0 0
16.8 0 0
17.1 0 0
17.4 0 0
17.7 0 0
18 0 0
18.3 0 0
18.6 0 0
18.9 0 0
19.2 0 0
19.5 0 0
19.8 0 0
20.1 0 0
20.4 0 0
20.7 0 0
21 0 0
21.3 0 0
21.6 0 0
21.9 0 0
22.2 0 0
22.5 0 0
22.8 0 0
23.1 0 0
23.4 0 0
23.7 0 0
24 0 0
24.3 0 0
24.6 0 0
24.9 0 0
25.2 0 0
25.5 0 0
25.8 0 0
26.1 0 0
26.4 0 0
26.7 0 0
27 0 0
27.3 0 0
27.6 0 0
27.9 0 0
28.2 0 0
28.5 0 0
28.8 0 0
29.1 0 0
29.4 0 0
29.7 0 0
30 0 0
30.3 0 0
0 0.1 0
0.3 0.1 0
0.6 0.1 0
0.9 0.1 0
1.2 0.1 0
1.5 0.1 0
1.8 0.1 0
2.1 0.1 0
2.4 0.1 0
2.7 0.1 0
3 0.1 0
3.3 0.1 0
3.6 0.1 0
3.9 0.1 0
4.2 0.1 0
4.5 0.1 0
4.8 0.1 0
5.1 0.1 0
5.4 0.1 0
5.7 0.1 0
6 0.1 0
6.3 0.1 0
6.6 0.1 0
6.9 0.1 0
7.2 0.1 0
7.5 0.1 0
7.8 0.1 0
8.1 0.1 0
8.4 0.1 0
8.7 0.1 0
9 0.1 0
9.3 0.1 0
9.6 0.1 0
9.9 0.1 0
10.2 0.1 0
10.5 0.1 0
10.8 0.1 0
11.1 0.1 0
11.4 0.1 0
11.7 0.1 0
12 0.1 0
12.3 0.1 0
12.6 0.1 0
12.9 0.1 0
13.2 0.1 0
13.5 0.1 0
13.8 0.1 0
14.1 0.1 0
14.4 0.1 0
14.7 0.1 0
15 0.1 0
15.3 0.1 0
15.6 0.1 0
15.9 0.1 0
16.2 0.1 0
16.5 0.1 0
16.8 0.1 0
17.1 0.1 0
17.4 0.1 0
17.7 0.1 0
18 0.1 0
18.3 0.1 0
18.6 0.1 0
18.9 0.1 0
19.2 0.1 0
19.5 0.1 0
19.8 0.1 0
20.1 0.1 0
20.4 0.1 0
20.7 0.1 0
21 0.1 0
21.3 0.1 0
21.6 0.1 0
21.9 0.1 0
22.2 0.1 0
22.5 0.1 0
22.8 0.1 0
23.1 0.1 0
23.4 0.1 0
23.7 0.1 0
24 0.1 0
24.3 0.1 0
24.6 0.1 0
24.9 0.1 0
25.2 0.1 0
25.5 0.1 0
25.8 0.1 0
26.1 0.1 0
26.4 0.1 0
26.7 0.1 0
27 0.1 0
27.3 0.1 0
27.6 0.1 0
27.9 0.1 0
28.2 0.1 0
28.5 0.1 0
28.8 0.1 0
29.1 0.1 0
29.4 0.1 0
29.7 0.1 0
30 0.1 0
30.3 0.1 0
0 0.2 0
0.3 0.2 0
0.6 0.2 0
0.9 0.2 0
1.2 0.2 0
1.5 0.2 0
1.8 0.2 0
2.1 0.2 0
2.4 0.2 0
2.7 0.2 0
3 0.2 0
3.3 0.2 0
3.6 0.2 0
3.9 0.2 0
4.2 0.2 0
4.5 0.2 0
4.8 0.2 0
5.1 0.2 0
5.4 0.2 0
5.7 0.2 0
6 0.2 0
6.3 0.2 0
6.6 0.2 0
6.9 0.2 0
7.2 0.2 0
7.5 0.2 0
7.8 0.2 0
8.1 0.2 0
8.4 0.2 0
8.7 0.2 0
9 0.2 0
9.3 0.2 0
9.6 0.2 0
9.9 0.2 0
10.2 0.2 0
10.5 0.2 0
10.8 0.2 0
11.1 0.2 0
11.4 0.2 0
11.7 0.2 0
12 0.2 0
12.3 0.2 0
12.6 0.2 0
12.9 0.2 0
13.2 0.2 0
13.5 0.2 0
13.8 0.2 0
14.1 0.2 0
14.4 0.2 0
14.7 0.2 0
15 0.2 0
15.3 0.2 0
15.6 0.2 0
15.9 0.2 0
16.2 0.2 0
16.5 0.2 0
16.8 0.2 0
17.1 0.2 0
17.4 0.2 0
17.7 0.2 0
18 0.2 0
18.3 0.2 0
18.6 0.2 0
18.9 0.2 0
19.2 0.2 0
19.5 0.2 0
19.8 0.2 0
20.1 0.2 0
20.4 0.2 0
20.7 0.2 0
21 0.2 0
21.3 0.2 0
21.6 0.2 0
21.9 0.2 0
22.2 0.2 0
22.5 0.2 0
22.8 0.2 0
23.1 0.2 0
23.4 0.2 0
23.7 0.2 0
24 0.2 0
24.3 0.2 0
24.6 0.2 0
24.9 0.2 0
25.2 0.2 0
25.5 0.2 0
25.8 0.2 0
26.1 0.2 0
26.4 0.2 0
26.7 0.2 0
27 0.2 0
27.3 0.2 0
27.6 0.2 0
27.9 0.2 0
28.2 0.2 0
28.5 0.2 0
28.8 0.2 0
29.1 0.2 0
29.4 0.2 0
29.7 0.2 0
30 0.2 0
30.3 0.2 0
0 0.3 0
0.3 0.3 0
0.6 0.3 0
0.9 0.3 0
1.2 0.3 0
1.5 0.3 0
1.8 0.3 0
2.1 0.3 0
2.4 0.3 0
2.7 0.3 0
3 0.3 0
3.3 0.3 0
3.6 0.3 0
3.9 0.3 0
4.2 0.3 0
4.5 0.3 0
4.8 0.3 0
5.1 0.3 0
5.4 0.3 0
5.7 0.3 0
6 0.3 0
6.3 0.3 0
6.6 0.3 0
6.9 0.3 0
7.2 0.3 0
7.5 0.3 0
7.8 0.3 0
8.1 0.3 0
8.4 0.3 0
8.7 0.3 0
9 0.3 0
9.3 0.3 0
9.6 0.3 0
9.9 0.3 0
10.2 0.3 0
10.5 0.3 0
10.8 0.3 0
11.1 0.3 0
11.4 0.3 0
11.7 0.3 0
12 0.3 0
12.3 0.3 0
12.6 0.3 0
12.9 0.3 0
13.2 0.3 0
13.5 0.3 0
13.8 0.3 0
14.1 0.3 0
14.4 0.3 0
14.7 0.3 0
15 0.3 0
15.3 0.3 0
15.6 0.3 0
15.9 0.3 0
16.2 0.3 0
16.5 0.3 0
16.8 0.3 0
17.1 0.3 0
17.4 0.3 0
17.7 0.3 0
18 0.3 0
18.3 0.3 0
18.6 0.3 0
18.9 0.3 0
19.2 0.3 0
19.5 0.3 0
19.8 0.3 0
20.1 0.3 0
20.4 0.3 0
20.7 0.3 0
21 0.3 0
21.3 0.3 0
21.6 0.3 0
21.9 0.3 0
22.2 0.3 0
22.5 0.3 0
22.8 0.3 0
23.1 0.3 0
23.4 0.3 0
23.7 0.3 0
24 0.3 0
24.3 0.3 0
24.6 0.3 0
24.9 0.3 0
25.2 0.3 0
25.5 0.3 0
25.8 0.3 0
26.1 0.3 0
26.4 0.3 0
26.7 0.3 0
27 0.3 0
27.3 0.3 0
27.6 0.3 0
27.9 0.3 0
28.2 0.3 0
28.5 0.3 0
28.8 0.3 0
29.1 0.3 0
29.4 0.3 0
29.7 0.3 0
30 0.3 0
30.3 0.3 0
0 0.4 0
0.3 0.4 0
0.6 0.4 0
0.9 0.4 0
1.2 0.4 0
1.5 0.4 0
1.8 0.4 0
2.1 0.4 0
2.4 0.4 0
2.7 0.4 0
3 0.4 0
3.3 0.4 0
3.6 0.4 0
3.9 0.4 0
4.2 0.4 0
4.5 0.4 0
4.8 0.4 0
5.1 0.4 0
5.4 0.4 0
5.7 0.4 0
6 0.4 0
6.3 0.4 0
6.6 0.4 0
6.9 0.4 0
7.2 0.4 0
7.5 0.4 0
7.8 0.4 0
8.1 0.4 0
8.4 0.4 0
8.7 0.4 0
9 0.4 0
9.3 0.4 0
9.6 0.4 0
9.9 0.4 0
10.2 0.4 0
10.5 0.4 0
10.8 0.4 0
11.1 0.4 0
11.4 0.4 0
11.7 0.4 0
12 0.4 0
12.3 0.4 0
12.6 0.4 0
12.9 0.4 0
13.2 0.4 0
13.5 0.4 0
13.8 0.4 0
14.1 0.4 0
14.4 0.4 0
14.7 0.4 0
15 0.4 0
15.3 0.4 0
15.6 0.4 0
15.9 0.4 0
16.2 0.4 0
16.5 0.4 0
16.8 0.4 0
17.1 0.4 0
17.4 0.4 0
17.7 0.4 0
18 0.4 0
18.3 0.4 0
18.6 0.4 0
18.9 0.4 0
19.2 0.4 0
19.5 0.4 0
19.8 0.4 0
20.1 0.4 0
20.4 0.4 0
20.7 0.4 0
21 0.4 0
21.3 0.4 0
21.6 0.4 0
21.9 0.4 0
22.2 0.4 0
22.5 0.4 0
22.8 0.4 0
23.1 0.4 0
23.4 0.4 0
23.7 0.4 0
24 0.4 0
24.3 0.4 0
24.6 0.4 0
24.9 0.4 0
25.2 0.4 0
25.5 0.4 0
25.8 0.4 0
26.1 0.4 0
26.4 0.4 0
26.7 0.4 0
27 0.4 0
27.3 0.4 0
27.6 0.4 0
27.9 0.4 0
28.2 0.4 0
28.5 0.4 0
28.8 0.4 0
29.1 0.4 0
29.4 0.4 0
29.7 0.4 0
30 0.4 0
30.3 0.4 0
0 0.5 0
0.3 0.5 0
0.6 0.5 0
0.9 0.5 0
1.2 0.5 0
1.5 0.5 0
1.8 0.5 0
2.1 0.5 0
2.4 0.5 0
2.7 0.5 0
3 0.5 0
3.3 0.5 0
3.6 0.5 0
3.9 0.5 0
4.2 0.5 0
4.5 0.5 0
4.8 0.5 0
5.1 0.5 0
5.4 0.5 0
5.7 0.5 0
6 0.5 0
6.3 0.5 0
6.6 0.5 0
6.9 0.5 0
7.2 0.5 0
7.5 0.5 0
7.8 0.5 0
8.1 0.5 0
8.4 0.5 0
8.7 0.5 0
9 0.5 0
9.3 0.5 0
9.6 0.5 0
9.9 0.5 0
10.2 0.5 0
10.5 0.5 0
10.8 0.5 0
11.1 0.5 0
11.4 0.5 0
11.7 0.5 0
12 0.5 0
12.3 0.5 0
12.6 0.5 0
12.9 0.5 0
13.2 0.5 0
13.5 0.5 0
13.8 0.5 0
14.1 0.5 0
14.4 0.5 0
14.7 0.5 0
15 0.5 0
15.3 0.5 0
15.6 0.5 0
15.9 0.5 0
16.2 0.5 0
16.5 0.5 0
16.8 0.5 0
17.1 0.5 0
17.4 0.5 0
17.7 0.5 0
18 0.5 0
18.3 0.5 0
18.6 0.5 0
18.9 0.5 0
19.2 0.5 0
19.5 0.5 0
19.8 0.5 0
20.1 0.5 0
20.4 0.5 0
20.7 0.5 0
21 0.5 0
21.3 0.5 0
21.6 0.5 0
21.9 0.5 0
22.2 0.5 0
22.5 0.5 0
22.8 0.5 0
23.1 0.5 0
23.4 0.5 0
23.7 0.5 0
24 0.5 0
24.3 0.5 0
24.6 0.5 0
24.9 0.5 0
25.2 0.5 0
25.5 0.5 0
25.8 0.5 0
26.1 0.5 0
26.4 0.5 0
26.7 0.5 0
27 0.5 0
27.3 0.5 0
27.6 0.5 0
27.9 0.5 0
28.2 0.5 0
28.5 0.5 0
28.8 0.5 0
29.1 0.5 0
29.4 0.5 0
29.7 0.5 0
30 0.5 0
30.3 0.5 0
0 0.6 0
0.3 0.6 0
0.6 0.6 0
0.9 0.6 0
1.2 0.6 0
1.5 0.6 0
1.8 0.6 0
2.1 0.6 0
2.4 0.6 0
2.7 0.6 0
3 0.6 0
3.3 0.6 0
3.6 0.6 0
3.9 0.6 0
4.2 0.6 0
4.5 0.6 0
4.8 0.6 0
5.1 0.6 0
5.4 0.6 0
5.7 0.6 0
6 0.6 0
6.3 0.6 0
6.6 0.6 0
6.9 0.6 0
7.2 0.6 0
7.5 0.6 0
7.8 0.6 0
8.1 0.6 0
8.4 0.6 0
8.7 0.6 0
9 0.6 0
9.3 0.6 0
9.6 0.6 0
9.9 0.6 0
10.2 0.6 0
10.5 0.6 0
10.8 0.6 0
11.1 0.6 0
11.4 0.6 0
11.7 0.6 0
12 0.6 0
12.3 0.6 0
12.6 0.6 0
12.9 0.6 0
13.2 0.6 0
13.5 0.6 0
13.8 0.6 0
14.1 0.6 0
14.4 0.6 0
14.7 0.6 0
15 0.6 0
15.3 0.6 0
15.6 0.6 0
15.9 0.6 0
16.2 0.6 0
16.5 0.6 0
16.8 0.6 0
17.1 0.6 0
17.4 0.6 0
17.7 0.6 0
18 0.6 0
18.3 0.6 0
18.6 0.6 0
18.9 0.6 0
19.2 0.6 0
19.5 0.6 0
19.8 0.6 0
20.1 0.6 0
20.4 0.6 0
20.7 0.6 0
21 0.6 0
21.3 0.6 0
21.6 0.6 0
21.9 0.6 0
22.2 0.6 0
22.5 0.6 0
22.8 0.6 0
23.1 0.6 0
23.4 0.6 0
23.7 0.6 0
24 0.6 0
24.3 0.6 0
24.6 0.6 0
24.9 0.6 0
25.2 0.6 0
25.5 0.6 0
25.8 0.6 0
26.1 0.6 0
26.4 0.6 0
26.7 0.6 0
27 0.6 0
27.3 0.6 0
27.6 0.6 0
27.9 0.6 0
28.2 0.6 0
28.5 0.6 0
28.8 0.6 0
29.1 0.6 0
29.4 0.6 0
29.7 0.6 0
30 0.6 0
30.3 0.6 0
0 0.7 0
0.3 0.7 0
0.6 0.7 0
0.9 0.7 0
1.2 0.7 0
1.5 0.7 0
1.8 0.7 0
2.1 0.7 0
2.4 0.7 0
2.7 0.7 0
3 0.7 0
3.3 0.7 0
3.6 0.7 0
3.9 0.7 0
4.2 0.7 0
4.5 0.7 0
4.8 0.7 0
5.1 0.7 0
5.4 0.7 0
5.7 0.7 0
6 0.7 0
6.3 0.7 0
6.6 0.7 0
6.9 0.7 0
7.2 0.7 0
7.5 0.7 0
7.8 0.7 0
8.1 0.7 0
8.4 0.7 0
8.7 0.7 0
9 0.7 0
9.3 0.7 0
9.6 0.7 0
9.9 0.7 0
10.2 0.7 0
10.5 0.7 0
10.8 0.7 0
11.1 0.7 0
11.4 0.7 0
11.7 0.7 0
12 0.7 0
12.3 0.7 0
12.6 0.7 0
12.9 0.7 0
13.2 0.7 0
13.5 0.7 0
13.8 0.7 0
14.1 0.7 0
14.4 0.7 0
14.7 0.7 0
15 0.7 0
15.3 0.7 0
15.6 0.7 0
15.9 0.7 0
16.2 0.7 0
16.5 0.7 0
16.8 0.7 0
17.1 0.7 0
17.4 0.7 0
17.7 0.7 0
18 0.7 0
18.3 0.7 0
18.6 0.7 0
18.9 0.7 0
19.2 0.7 0
19.5 0.7 0
19.8 0.7 0
20.1 0.7 0
20.4 0.7 0
20.7 0.7 0
21 0.7 0
21.3 0.7 0
21.6 0.7 0
21.9 0.7 0
22.2 0.7 0
22.5 0.7 0
22.8 0.7 0
23.1 0.7 0
23.4 0.7 0
23.7 0.7 0
24 0.7 0
24.3 0.7 0
24.6 0.7 0
24.9 0.7 0
25.2 0.7 0
25.5 0.7 0
25.8 0.7 0
26.1 0.7 0
26.4 0.7 0
26.7 0.7 0
27 0.7 0
27.3 0.7 0
27.6 0.7 0
27.9 0.7 0
28.2 0.7 0
28.5 0.7 0
28.8 0.7 0
29.1 0.7 0
29.4 0.7 0
29.7 0.7 0
30 0.7 0
30.3 0.7 0
0 0.8 0
0.3 0.8 0
0.6 0.8 0
0.9 0.8 0
1.2 0.8 0
1.5 0.8 0
1.8 0.8 0
2.1 0.8 0
2.4 0.8 0
2.7 0.8 0
3 0.8 0
3.3 0.8 0
3.6 0.8 0
3.9 0.8 0
4.2 0.8 0
4.5 0.8 0
4.8 0.8 0
5.1 0.8 0
5.4 0.8 0
5.7 0.8 0
6 0.8 0
6.3 0.8 0
6.6 0.8 0
6.9 0.8 0
7.2 0.8 0
7.5 0.8 0
7.8 0.8 0
8.1 0.8 0
8.4 0.8 0
8.7 0.8 0
9 0.8 0
9.3 0.8 0
9.6 0.8 0
9.9 0.8 0
10.2 0.8 0
10.5 0.8 0
10.8 0.8 0
11.1 0.8 0
11.4 0.8 0
11.7 0.8 0
12 0.8 0
12.3 0.8 0
12.6 0.8 0
12.9 0.8 0
13.2 0.8 0
13.5 0.8 0
13.8 0.8 0
14.1 0.8 0
14.4 0.8 0
14.7 0.8 0
15 0.8 0
15.3 0.8 0
15.6 0.8 0
15.9 0.8 0
16.2 0.8 0
16.5 0.8 0
16.8 0.8 0
17.1 0.8 0
17.4 0.8 0
17.7 0.8 0
18 0.8 0
18.3 0.8 0
18.6 0.8 0
18.9 0.8 0
19.2 0.8 0
19.5 0.8 0
19.8 0.8 0
20.1 0.8 0
20.4 0.8 0
20.7 0.8 0
21 0.8 0
21.3 0.8 0
21.6 0.8 0
21.9 0.8 0
22.2 0.8 0
22.5 0.8 0
22.8 0.8 0
23.1 0.8 0
23.4 0.8 0
23.7 0.8 0
24 0.8 0
24.3 0.8 0
24.6 0.8 0
24.9 0.8 0
25.2 0.8 0
25.5 0.8 0
25.8 0.8 0
26.1 0.8 0
26.4 0.8 0
26.7 0.8 0
27 0.8 0
27.3 0.8 0
27.6 0.8 0
27.9 0.8 0
28.2 0.8 0
28.5 0.8 0
28.8 0.8 0
29.1 0.8 0
29.4 0.8 0
29.7 0.8 0
30 0.8 0
30.3 0.8 0
0 0.9 0
0.3 0.9 0
0.6 0.9 0
0.9 0.9 0
1.2 0.9 0
1.5 0.9 0
1.8 0.9 0
2.1 0.9 0
2.4 0.9 0
2.7 0.9 0
3 0.9 0
3.3 0.9 0
3.6 0.9 0
3.9 0.9 0
4.2 0.9 0
4.5 0.9 0
4.8 0.9 0
5.1 0.9 0
5.4 0.9 0
5.7 0.9 0
6 0.9 0
6.3 0.9 0
6.6 0.9 0
6.9 0.9 0
7.2 0.9 0
7.5 0.9 0
7.8 0.9 0
8.1 0.9 0
8.4 0.9 0
8.7 0.9 0
9 0.9 0
9.3 0.9 0
9.6 0.9 0
9.9 0.9 0
10.2 0.9 0
10.5 0.9 0
10.8 0.9 0
11.1 0.9 0
11.4 0.9 0
11.7 0.9 0
12 0.9 0
12.3 0.9 0
12.6 0.9 0
12.9 0.9 0
13.2 0.9 0
13.5 0.9 0
13.8 0.9 0
14.1 0.9 0
14.4 0.9 0
14.7 0.9 0
15 0.9 0
15.3 0.9 0
15.6 0.9 0
15.9 0.9 0
16.2 0.9 0
16.5 0.9 0
16.8 0.9 0
17.1 0.9 0
17.4 0.9 0
17.7 0.9 0
18 0.9 0
18.3 0.9 0
18.6 0.9 0
18.9 0.9 0
19.2 0.9 0
19.5 0.9 0
19.8 0.9 0
20.1 0.9 0
20.4 0.9 0
20.7 0.9 0
21 0.9 0
21.3 0.9 0
21.6 0.9 0
21.9 0.9 0
22.2 0.9 0
22.5 0.9 0
22.8 0.9 0
23.1 0.9 0
23.4 0.9 0
23.7 0.9 0
24 0.9 0
24.3 0.9 0
24.6 0.9 0
24.9 0.9 0
25.2 0.9 0
25.5 0.9 0
25.8 0.9 0
26.1 0.9 0
26.4 0.9 0
26.7 0.9 0
27 0.9 0
27.3 0.9 0
27.6 0.9 0
27.9 0.9 0
28.2 0.9 0
28.5 0.9 0
28.8 0.9 0
29.1 0.9 0
29.4 0.9 0
29.7 0.9 0
30 0.9 0
30.3 0.9 0
0 1 0
0.3 1 0
0.6 1 0
0.9 1 0
1.2 1 0
1.5 1 0
1.8 1 0
2.1 1 0
2.4 1 0
2.7 1 0
3 1 0
3.3 1 0
3.6 1 0
3.9 1 0
4.2 1 0
4.5 1 0
4.8 1 0
5.1 1 0
5.4 1 0
5.7 1 0
6 1 0
6.3 1 0
6.6 1 0
6.9 1 0
7.2 1 0
7.5 1 0
7.8 1 0
8.1 1 0
8.4 1 0
8.7 1 0
9 1 0
9.3 1 0
9.6 1 0
9.9 1 0
10.2 1 0
10.5 1 0
10.8 1 0
11.1 1 0
11.4 1 0
11.7 1 0
12 1 0
12.3 1 0
12.6 1 0
12.9 1 0
13.2 1 0
13.5 1 0
13.8 1 0
14.1 1 0
14.4 1 0
14.7 1 0
15 1 0
15.3 1 0
15.6 1 0
15.9 1 0
16.2 1 0
16.5 1 0
16.8 1 0
17.1 1 0
17.4 1 0
17.7 1 0
18 1 0
18.3 1 0
18.6 1 0
18.9 1 0
19.2 1 0
19.5 1 0
19.8 1 0
20.1 1 0
20.4 1 0
20.7 1 0
21 1 0
21.3 1 0
21.6 1 0
21.9 1 0
22.2 1 0
22.5 1 0
22.8 1 0
23.1 1 0
23.4 1 0
23.7 1 0
24 1 0
24.3 1 0
24.6 1 0
24.9 1 0
25.2 1 0
25.5 1 0
25.8 1 0
26.1 1 0
26.4 1 0
26.7 1 0
27 1 0
27.3 1 0
27.6 1 0
27.9 1 0
28.2 1 0
28.5 1 0
28.8 1 0
29.1 1 0
29.4 1 0
29.7 1 0
30 1 0
30.3 1 0
0 1.1 0
0.3 1.1 0
0.6 1.1 0
0.9 1.1 0
1.2 1.1 0
1.5 1.1 0
1.8 1.1 0
2.1 1.1 0
2.4 1.1 0
2.7 1.1 0
3 1.1 0
3.3 1.1 0
3.6 1.1 0
3.9 1.1 0
4.2 1.1 0
4.5 1.1 0
4.8 1.1 0
5.1 1.1 0
5.4 1.1 0
5.7 1.1 0
6 1.1 0
6.3 1.1 0
6.6 1.1 0
6.9 1.1 0
7.2 1.1 0
7.5 1.1 0
7.8 1.1 0
8.1 1.1 0
8.4 1.1 0
8.7 1.1 0
9 1.1 0
9.3 1.1 0
9.6 1.1 0
9.9 1.1 0
10.2 1.1 0
10.5 1.1 0
10.8 1.1 0
11.1 1.1 0
11.4 1.1 0
11.7 1.1 0
12 1.1 0
12.3 1.1 0
12.6 1.1 0
12.9 1.1 0
13.2 1.1 0
13.5 1.1 0
13.8 1.1 0
14.1 1.1 0
14.4 1.1 0
14.7 1.1 0
15 1.1 0
15.3 1.1 0
15.6 1.1 0
15.9 1.1 0
16.2 1.1 0
16.5 1.1 0
16.8 1.1 0
17.1 1.1 0
17.4 1.1 0
17.7 1.1 0
18 1.1 0
18.3 1.1 0
18.6 1.1 0
18.9 1.1 0
19.2 1.1 0
19.5 1.1 0
19.8 1.1 0
20.1 1.1 0
20.4 1.1 0
20.7 1.1 0
21 1.1 0
21.3 1.1 0
21.6 1.1 0
21.9 1.1 0
22.2 1.1 0
22.5 1.1 0
22.8 1.1 0
23.1 1.1 0
23.4 1.1 0
23.7 1.1 0
24 1.1 0
24.3 1.1 0
24.6 1.1 0
24.9 1.1 0
25.2 1.1 0
25.5 1.1 0
25.8 1.1 0
26.1 1.1 0
26.4 1.1 0
26.7 1.1 0
27 1.1 0
27.3 1.1 0
27.6 1.1 0
27.9 1.1 0
28.2 1.1 0
28.5 1.1 0
28.8 1.1 0
29.1 1.1 0
29.4 1.1 0
29.7 1.1 0
30 1.1 0
30.3 1.1 0
0 1.2 0
0.3 1.2 0
0.6 1.2 0
0.9 1.2 0
1.2 1.2 0
1.5 1.2 0
1.8 1.2 0
2.1 1.2 0
2.4 1.2 0
2.7 1.2 0
3 1.2 0
3.3 1.2 0
3.6 1.2 0
3.9 1.2 0
4.2 1.2 0
4.5 1.2 0
4.8 1.2 0
5.1 1.2 0
5.4 1.2 0
5.7 1.2 0
6 1.2 0
6.3 1.2 0
6.6 1.2 0
6.9 1.2 0
7.2 1.2 0
7.5 1.2 0
7.8 1.2 0
8.1 1.2 0
8.4 1.2 0
8.7 1.2 0
9 1.2 0
9.3 1.2 0
9.6 1.2 0
9.9 1.2 0
10.2 1.2 0
10.5 1.2 0
10.8 1.2 0
11.1 1.2 0
11.4 1.2 0
11.7 1.2 0
12 1.2 0
12.3 1.2 0
12.6 1.2 0
12.9 1.2 0
13.2 1.2 0
13.5 1.2 0
13.8 1.2 0
14.1 1.2 0
14.4 1.2 0
14.7 1.2 0
15 1.2 0
15.3 1.2 0
15.6 1.2 0
15.9 1.2 0
16.2 1.2 0
16.5 1.2 0
16.8 1.2 0
17.1 1.2 0
17.4 1.2 0
17.7 1.2 0
18 1.2 0
18.3 1.2 0
18.6 1.2 0
18.9 1.2 0
19.2 1.2 0
19.5 1.2 0
19.8 1.2 0
20.1 1.2 0
20.4 1.2 0
20.7 1.2 0
21 1.2 0
21.3 1.2 0
21.6 1.2 0
21.9 1.2 0
22.2 1.2 0
22.5 1.2 0
22.8 1.2 0
23.1 1.2 0
23.4 1.2 0
23.7 1.2 0
24 1.2 0
24.3 1.2 0
24.6 1.2 0
24.9 1.2 0
25.2 1.2 0
25.5 1.2 0
25.8 1.2 0
26.1 1.2 0
26.4 1.2 0
26.7 1.2 0
27 1.2 0
27.3 1.2 0
27.6 1.2 0
27.9 1.2 0
28.2 1.2 0
28.5 1.2 0
28.8 1.2 0
29.1 1.2 0
29.4 1.2 0
29.7 1.2 0
30 1.2 0
30.3 1.2 0

POINT_DATA 1326

SCALARS p double
LOOKUP_TABLE default
1.16059
1.16059
1.09575
1.05151
1.01169
0.975114
0.942062
0.912534
0.886179
0.862469
0.840867
0.820904
0.802211
0.784512
0.767605
0.751345
0.735627
0.720371
0.705519
0.691024
0.676849
0.662965
0.649344
0.635965
0.622809
0.609859
0.5971
0.584517
0.5721
0.559835
0.547715
0.535728
0.523867
0.512123
0.500491
0.488962
0.47753
0.46619
0.454937
0.443765
0.432669
0.421646
0.410691
0.3998
0.38897
0.378198
0.367482
0.356818
0.346205
0.335641
0.325125
0.314656
0.304233
0.293853
0.283517
0.273223
0.262969
0.252754
0.242576
0.232432
0.22232
0.212237
0.20218
0.192148
0.182136
0.172143
0.162165
0.152201
0.142248
0.132304
0.122368
0.112438
0.102513
0.0925922
0.0826742
0.0727585
0.0628446
0.0529319
0.0430203
0.0331094
0.0231991
0.0132891
0.00337939
-0.00653013
-0.0164395
-0.0263488
-0.036258
-0.0461672
-0.0560763
-0.0659855
-0.0758946
-0.0858036
-0.0957127
-0.105622
-0.115531
-0.12544
-0.135349
-0.145258
-0.155167
-0.165077
-0.174982
0.174982
1.16059
1.16059
1.09575
1.05151
1.01169
0.975114
0.942062
0.912534
0.886179
0.862469
0.840867
0.820904
0.802211
0.784512
0.767605
0.751345
0.735627
0.720371
0.705519
0.691024
0.676849
0.662965
0.649344
0.635965
0.622809
0.609859
0.5971
0.584517
0.5721
0.559835
0.547715
0.535728
0.523867
0.512123
0.500491
0.488962
0.47753
0.46619
0.454937
0.443765
0.432669
0.421646
0.410691
0.3998
0.38897
0.378198
0.367482
0.356818
0.346205
0.335641
0.325125
0.314656
0.304233
0.293853
0.283517
0.273223
0.262969
0.252754
0.242576
0.232432
0.22232
0.212237
0.20218
0.192148
0.182136
0.172143
0.162165
0.152201
0.142248
0.132304
0.122368
0.112438
0.102513
0.0925922
0.0826742
0.0727585
0.0628446
0.0529319
0.0430203
0.0331094
0.0231991
0.0132891
0.00337939
-0.00653013
-0.0164395
-0.0263488
-0.036258
-0.0461672
-0.0560763
-0.0659855
-0.0758946
-0.0858036
-0.0957127
-0.105622
-0.115531
-0.12544
-0.135349
-0.145258
-0.155167
-0.165077
-0.174982
0.174982
1.13965
1.13965
1.09376
1.05174
1.01239
0.975911
0.942805
0.913166
0.886686
0.862865
0.841171
0.821138
0.802393
0.784656
0.767722
0.751443
0.735709
0.720442
0.705581
0.691079
0.676899
0.663009
0.649384
0.636002
0.622843
0.60989
0.597128
0.584543
0.572124
0.559858
0.547735
0.535747
0.523885
0.51214
0.500506
0.488976
0.477544
0.466203
0.454949
0.443776
0.43268
0.421656
0.4107
0.399809
0.388978
0.378206
0.367489
0.356825
0.346211
0.335647
0.325131
0.314661
0.304237
0.293857
0.28352
0.273226
0.262972
0.252756
0.242577
0.232433
0.22232
0.212237
0.202181
0.192148
0.182136
0.172143
0.162165
0.152201
0.142248
0.132304
0.122368
0.112438
0.102513
0.0925921
0.0826741
0.0727584
0.0628445
0.0529319
0.0430203
0.0331094
0.0231991
0.0132891
0.00337938
-0.00653014
-0.0164395
-0.0263488
-0.036258
-0.0461672
-0.0560763
-0.0659855
-0.0758946
-0.0858037
-0.0957127
-0.105622
-0.115531
-0.12544
-0.135349
-0.145258
-0.155167
-0.165077
-0.174982
0.174982
1.12467
1.12467
1.09088
1.05197
1.0135
0.977235
0.944067
0.914244
0.887547
0.863524
0.841663
0.821503
0.802665
0.784861
0.767881
0.751568
0.735811
0.720526
0.705652
0.69114
0.676952
0.663056
0.649426
0.636039
0.622876
0.60992
0.597155
0.584568
0.572146
0.559878
0.547754
0.535765
0.523901
0.512155
0.50052
0.488989
0.477555
0.466214
0.454959
0.443785
0.432689
0.421664
0.410708
0.399816
0.388985
0.378212
0.367495
0.35683
0.346216
0.335652
0.325135
0.314665
0.30424
0.29386
0.283523
0.273228
0.262973
0.252758
0.242578
0.232434
0.222321
0.212238
0.202181
0.192148
0.182136
0.172143
0.162165
0.152201
0.142248
0.132304
0.122368
0.112438
0.102513
0.0925921
0.0826741
0.0727584
0.0628445
0.0529319
0.0430203
0.0331094
0.0231991
0.0132891
0.00337937
-0.00653015
-0.0164395
-0.0263488
-0.036258
-0.0461672
-0.0560763
-0.0659855
-0.0758946
-0.0858037
-0.0957127
-0.105622
-0.115531
-0.12544
-0.135349
-0.145258
-0.155167
-0.165076
-0.174981
0.174981
1.1151
1.1151
1.08839
1.05208
1.01446
0.97843
0.945243
0.91528
0.8884
0.864196
0.842181
0.821897
0.802967
0.785096
0.768066
0.751717
0.735934
0.720629
0.70574
0.691216
0.677018
0.663114
0.649477
0.636085
0.622917
0.609957
0.597189
0.584599
0.572174
0.559904
0.547777
0.535786
0.52392
0.512173
0.500536
0.489004
0.477569
0.466227
0.454971
0.443797
0.432699
0.421674
0.410717
0.399824
0.388993
0.37822
0.367502
0.356837
0.346222
0.335657
0.32514
0.31467
0.304245
0.293864
0.283527
0.273232
0.262977
0.252761
0.242581
0.232436
0.222323
0.21224
0.202183
0.192149
0.182137
0.172144
0.162166
0.152201
0.142248
0.132304
0.122368
0.112438
0.102513
0.0925922
0.0826742
0.0727585
0.0628445
0.0529319
0.0430203
0.0331094
0.0231991
0.0132891
0.00337937
-0.00653014
-0.0164395
-0.0263488
-0.036258
-0.0461672
-0.0560763
-0.0659855
-0.0758946
-0.0858037
-0.0957128
-0.105622
-0.115531
-0.12544
-0.135349
-0.145258
-0.155166
-0.165073
-0.174979
0.174979
1.10978
1.10978
1.08676
1.0521
1.01505
0.979196
0.946012
0.91597
0.888978
0.86466
0.842545
0.822181
0.803189
0.785273
0.768209
0.751835
0.736033
0.720714
0.705813
0.69128
0.677075
0.663165
0.649523
0.636126
0.622954
0.609991
0.597219
0.584626
0.572199
0.559927
0.547799
0.535805
0.523938
0.51219
0.500552
0.489018
0.477583
0.466239
0.454983
0.443807
0.432709
0.421683
0.410726
0.399833
0.389001
0.378227
0.367509
0.356843
0.346228
0.335663
0.325146
0.314675
0.30425
0.293869
0.283532
0.273236
0.262981
0.252765
0.242585
0.23244
0.222326
0.212242
0.202185
0.192151
0.182139
0.172145
0.162167
0.152202
0.142249
0.132305
0.122369
0.112439
0.102514
0.0925925
0.0826744
0.0727586
0.0628446
0.052932
0.0430204
0.0331095
0.0231991
0.0132891
0.00337939
-0.00653013
-0.0164395
-0.0263488
-0.036258
-0.0461672
-0.0560763
-0.0659855
-0.0758946
-0.0858037
-0.0957128
-0.105622
-0.115531
-0.12544
-0.135349
-0.145258
-0.155166
-0.16507
-0.174978
0.174978
1.10808
1.10808
1.08622
1.05211
1.01526
0.97947
0.946286
0.916215
0.889185
0.864827
0.842678
0.822286
0.803272
0.785339
0.768263
0.751881
0.736071
0.720748
0.705843
0.691306
0.677098
0.663186
0.649542
0.636143
0.62297
0.610005
0.597232
0.584638
0.57221
0.559937
0.547808
0.535814
0.523946
0.512197
0.500559
0.489025
0.477589
0.466245
0.454988
0.443812
0.432713
0.421687
0.410729
0.399836
0.389004
0.37823
0.367512
0.356846
0.346231
0.335666
0.325148
0.314678
0.304252
0.293872
0.283534
0.273238
0.262983
0.252767
0.242587
0.232441
0.222328
0.212244
0.202186
0.192153
0.18214
0.172146
0.162168
0.152203
0.142249
0.132305
0.122369
0.112439
0.102514
0.0925926
0.0826745
0.0727587
0.0628447
0.052932
0.0430204
0.0331095
0.0231991
0.0132891
0.0033794
-0.00653012
-0.0164395
-0.0263488
-0.036258
-0.0461672
-0.0560763
-0.0659855
-0.0758946
-0.0858037
-0.0957128
-0.105622
-0.115531
-0.12544
-0.135349
-0.145258
-0.155165
-0.165068
-0.174977
0.174977
1.10978
1.10978
1.08676
1.0521
1.01505
0.979196
0.946012
0.91597
0.888978
0.86466
0.842545
0.822181
0.803189
0.785273
0.768209
0.751835
0.736033
0.720714
0.705813
0.69128
0.677075
0.663165
0.649523
0.636126
0.622954
0.609991
0.597219
0.584626
0.572199
0.559927
0.547799
0.535805
0.523938
0.51219
0.500552
0.489018
0.477583
0.466239
0.454983
0.443807
0.432709
0.421683
0.410726
0.399833
0.389001
0.378227
0.367509
0.356843
0.346228
0.335663
0.325146
0.314675
0.30425
0.293869
0.283532
0.273236
0.262981
0.252765
0.242585
0.23244
0.222326
0.212242
0.202185
0.192152
0.182139
0.172145
0.162167
0.152202
0.142249
0.132305
0.122369
0.112439
0.102514
0.0925925
0.0826744
0.0727586
0.0628446
0.052932
0.0430204
0.0331095
0.0231991
0.0132891
0.00337939
-0.00653013
-0.0164395
-0.0263488
-0.036258
-0.0461672
-0.0560763
-0.0659855
-0.0758946
-0.0858037
-0.0957128
-0.105622
-0.115531
-0.12544
-0.135349
-0.145258
-0.155166
-0.16507
-0.174978
0.174978
1.1151
1.1151
1.08839
1.05208
1.01446
0.97843
0.945243
0.91528
0.8884
0.864196
0.842181
0.821897
0.802967
0.785096
0.768066
0.751717
0.735934
0.720629
0.70574
0.691216
0.677018
0.663114
0.649477
0.636085
0.622917
0.609957
0.597189
0.584599
0.572174
0.559904
0.547777
0.535786
0.52392
0.512173
0.500536
0.489004
0.477569
0.466227
0.454971
0.443797
0.432699
0.421674
0.410717
0.399824
0.388993
0.37822
0.367502
0.356837
0.346222
0.335657
0.32514
0.31467
0.304245
0.293864
0.283527
0.273232
0.262977
0.252761
0.242581
0.232436
0.222323
0.21224
0.202183
0.192149
0.182137
0.172144
0.162166
0.152201
0.142248
0.132304
0.122368
0.112438
0.102513
0.0925922
0.0826742
0.0727585
0.0628445
0.0529319
0.0430203
0.0331094
0.0231991
0.0132891
0.00337938
-0.00653014
-0.0164395
-0.0263488
-0.036258
-0.0461672
-0.0560763
-0.0659855
-0.0758946
-0.0858037
-0.0957128
-0.105622
-0.115531
-0.12544
-0.135349
-0.145258
-0.155166
-0.165073
-0.174979
0.174979
1.12467
1.12467
1.09088
1.05197
1.0135
0.977235
0.944067
0.914244
0.887547
0.863524
0.841663
0.821503
0.802665
0.784861
0.767881
0.751568
0.735811
0.720526
0.705652
0.69114
0.676952
0.663056
0.649426
0.636039
0.622876
0.60992
0.597155
0.584568
0.572146
0.559878
0.547754
0.535765
0.523901
0.512155
0.50052
0.488989
0.477555
0.466214
0.454959
0.443785
0.432689
0.421664
0.410708
0.399816
0.388985
0.378212
0.367495
0.35683
0.346216
0.335651
0.325135
0.314665
0.30424
0.29386
0.283523
0.273228
0.262973
0.252758
0.242578
0.232434
0.222321
0.212238
0.202181
0.192148
0.182136
0.172143
0.162165
0.152201
0.142248
0.132304
0.122368
0.112438
0.102513
0.0925921
0.0826741
0.0727584
0.0628445
0.0529319
0.0430203
0.0331094
0.0231991
0.0132891
0.00337937
-0.00653014
-0.0164395
-0.0263488
-0.036258
-0.0461672
-0.0560763
-0.0659855
-0.0758946
-0.0858037
-0.0957128
-0.105622
-0.115531
-0.12544
-0.135349
-0.145258
-0.155167
-0.165076
-0.174981
0.174981
1.13965
1.13965
1.09376
1.05174
1.01239
0.975911
0.942805
0.913166
0.886686
0.862865
0.841171
0.821138
0.802393
0.784656
0.767722
0.751443
0.735709
0.720442
0.705581
0.691079
0.676899
0.663009
0.649384
0.636002
0.622843
0.60989
0.597128
0.584543
0.572124
0.559858
0.547735
0.535747
0.523885
0.51214
0.500506
0.488976
0.477544
0.466203
0.454949
0.443776
0.43268
0.421656
0.4107
0.399809
0.388978
0.378206
0.367489
0.356825
0.346211
0.335647
0.325131
0.314661
0.304237
0.293857
0.28352
0.273226
0.262972
0.252756
0.242577
0.232433
0.22232
0.212237
0.202181
0.192148
0.182136
0.172143
0.162165
0.152201
0.142248
0.132304
0.122368
0.112438
0.102513
0.0925922
0.0826741
0.0727584
0.0628445
0.0529319
0.0430203
0.0331094
0.0231991
0.0132891
0.00337938
-0.00653014
-0.0164395
-0.0263488
-0.036258
-0.0461672
-0.0560763
-0.0659855
-0.0758946
-0.0858037
-0.0957128
-0.105622
-0.115531
-0.12544
-0.135349
-0.145258
-0.155167
-0.165077
-0.174982
0.174982
1.16059
1.16059
1.09575
1.05151
1.01169
0.975114
0.942062
0.912534
0.886179
0.862469
0.840867
0.820904
0.802211
0.784512
0.767605
0.751345
0.735627
0.720371
0.705519
0.691024
0.676849
0.662965
0.649344
0.635965
0.622809
0.609859
0.5971
0.584517
0.5721
0.559835
0.547715
0.535728
0.523867
0.512123
0.500491
0.488962
0.47753
0.46619
0.454937
0.443765
0.432669
0.421646
0.410691
0.3998
0.38897
0.378198
0.367482
0.356818
0.346205
0.335641
0.325125
0.314656
0.304233
0.293853
0.283517
0.273223
0.262969
0.252754
0.242576
0.232432
0.22232
0.212237
0.20218
0.192148
0.182136
0.172143
0.162165
0.152201
0.142248
0.132304
0.122368
0.112438
0.102513
0.0925922
0.0826742
0.0727585
0.0628446
0.0529319
0.0430203
0.0331094
0.0231991
0.0132891
0.00337938
-0.00653013
-0.0164395
-0.0263488
-0.036258
-0.0461672
-0.0560763
-0.0659855
-0.0758946
-0.0858037
-0.0957128
-0.105622
-0.115531
-0.12544
-0.135349
-0.145258
-0.155167
-0.165077
-0.174982
0.174982
1.16059
1.16059
1.09575
1.05151
1.01169
0.975114
0.942062
0.912534
0.886179
0.862469
0.840867
0.820904
0.802211
0.784512
0.767605
0.751345
0.735627
0.720371
0.705519
0.691024
0.676849
0.662965
0.649344
0.635965
0.622809
0.609859
0.5971
0.584517
0.5721
0.559835
0.547715
0.535728
0.523867
0.512123
0.500491
0.488962
0.47753
0.46619
0.454937
0.443765
0.432669
0.421646
0.410691
0.3998
0.38897
0.378198
0.367482
0.356818
0.346205
0.335641
0.325125
0.314656
0.304233
0.293853
0.283517
0.273223
0.262969
0.252754
0.242576
0.232432
0.22232
0.212237
0.20218
0.192148
0.182136
0.172143
0.162165
0.152201
0.142248
0.132304
0.122368
0.112438
0.102513
0.0925922
0.0826742
0.0727585
0.0628446
0.0529319
0.0430203
0.0331094
0.0231991
0.0132891
0.00337938
-0.00653013
-0.0164395
-0.0263488
-0.036258
-0.0461672
-0.0560763
-0.0659855
-0.0758946
-0.0858037
-0.0957128
-0.105622
-0.115531
-0.12544
-0.135349
-0.145258
-0.155167
-0.165077
-0.174982
0.174982
