# vtk DataFile Version 2.0
FlowField
ASCII
DATASET STRUCTURED_GRID
DIMENSIONS 101 11 1 
POINTS 1111 double
0 0 0
0.3 0 0
0.6 0 0
0.9 0 0
1.2 0 0
1.5 0 0
1.8 0 0
2.1 0 0
2.4 0 0
2.7 0 0
3 0 0
3.3 0 0
3.6 0 0
3.9 0 0
4.2 0 0
4.5 0 0
4.8 0 0
5.1 0 0
5.4 0 0
5.7 0 0
6 0 0
6.3 0 0
6.6 0 0
6.9 0 0
7.2 0 0
7.5 0 0
7.8 0 0
8.1 0 0
8.4 0 0
8.7 0 0
9 0 0
9.3 0 0
9.6 0 0
9.9 0 0
10.2 0 0
10.5 0 0
10.8 0 0
11.1 0 0
11.4 0 0
11.7 0 0
12 0 0
12.3 0 0
12.6 0 0
12.9 0 0
13.2 0 0
13.5 0 0
13.8 0 0
14.1 0 0
14.4 0 0
14.7 0 0
15 0 0
15.3 0 0
15.6 0 0
15.9 0 0
16.2 0 0
16.5 0 0
16.8 0 0
17.1 0 0
17.4 0 0
17.7 0 0
18 0 0
18.3 0 0
18.6 0 0
18.9 0 0
19.2 0 0
19.5 0 0
19.8 0 0
20.1 0 0
20.4 0 0
20.7 0 0
21 0 0
21.3 0 0
21.6 0 0
21.9 0 0
22.2 0 0
22.5 0 0
22.8 0 0
23.1 0 0
23.4 0 0
23.7 0 0
24 0 0
24.3 0 0
24.6 0 0
24.9 0 0
25.2 0 0
25.5 0 0
25.8 0 0
26.1 0 0
26.4 0 0
26.7 0 0
27 0 0
27.3 0 0
27.6 0 0
27.9 0 0
28.2 0 0
28.5 0 0
28.8 0 0
29.1 0 0
29.4 0 0
29.7 0 0
30 0 0
0 0.1 0
0.3 0.1 0
0.6 0.1 0
0.9 0.1 0
1.2 0.1 0
1.5 0.1 0
1.8 0.1 0
2.1 0.1 0
2.4 0.1 0
2.7 0.1 0
3 0.1 0
3.3 0.1 0
3.6 0.1 0
3.9 0.1 0
4.2 0.1 0
4.5 0.1 0
4.8 0.1 0
5.1 0.1 0
5.4 0.1 0
5.7 0.1 0
6 0.1 0
6.3 0.1 0
6.6 0.1 0
6.9 0.1 0
7.2 0.1 0
7.5 0.1 0
7.8 0.1 0
8.1 0.1 0
8.4 0.1 0
8.7 0.1 0
9 0.1 0
9.3 0.1 0
9.6 0.1 0
9.9 0.1 0
10.2 0.1 0
10.5 0.1 0
10.8 0.1 0
11.1 0.1 0
11.4 0.1 0
11.7 0.1 0
12 0.1 0
12.3 0.1 0
12.6 0.1 0
12.9 0.1 0
13.2 0.1 0
13.5 0.1 0
13.8 0.1 0
14.1 0.1 0
14.4 0.1 0
14.7 0.1 0
15 0.1 0
15.3 0.1 0
15.6 0.1 0
15.9 0.1 0
16.2 0.1 0
16.5 0.1 0
16.8 0.1 0
17.1 0.1 0
17.4 0.1 0
17.7 0.1 0
18 0.1 0
18.3 0.1 0
18.6 0.1 0
18.9 0.1 0
19.2 0.1 0
19.5 0.1 0
19.8 0.1 0
20.1 0.1 0
20.4 0.1 0
20.7 0.1 0
21 0.1 0
21.3 0.1 0
21.6 0.1 0
21.9 0.1 0
22.2 0.1 0
22.5 0.1 0
22.8 0.1 0
23.1 0.1 0
23.4 0.1 0
23.7 0.1 0
24 0.1 0
24.3 0.1 0
24.6 0.1 0
24.9 0.1 0
25.2 0.1 0
25.5 0.1 0
25.8 0.1 0
26.1 0.1 0
26.4 0.1 0
26.7 0.1 0
27 0.1 0
27.3 0.1 0
27.6 0.1 0
27.9 0.1 0
28.2 0.1 0
28.5 0.1 0
28.8 0.1 0
29.1 0.1 0
29.4 0.1 0
29.7 0.1 0
30 0.1 0
0 0.2 0
0.3 0.2 0
0.6 0.2 0
0.9 0.2 0
1.2 0.2 0
1.5 0.2 0
1.8 0.2 0
2.1 0.2 0
2.4 0.2 0
2.7 0.2 0
3 0.2 0
3.3 0.2 0
3.6 0.2 0
3.9 0.2 0
4.2 0.2 0
4.5 0.2 0
4.8 0.2 0
5.1 0.2 0
5.4 0.2 0
5.7 0.2 0
6 0.2 0
6.3 0.2 0
6.6 0.2 0
6.9 0.2 0
7.2 0.2 0
7.5 0.2 0
7.8 0.2 0
8.1 0.2 0
8.4 0.2 0
8.7 0.2 0
9 0.2 0
9.3 0.2 0
9.6 0.2 0
9.9 0.2 0
10.2 0.2 0
10.5 0.2 0
10.8 0.2 0
11.1 0.2 0
11.4 0.2 0
11.7 0.2 0
12 0.2 0
12.3 0.2 0
12.6 0.2 0
12.9 0.2 0
13.2 0.2 0
13.5 0.2 0
13.8 0.2 0
14.1 0.2 0
14.4 0.2 0
14.7 0.2 0
15 0.2 0
15.3 0.2 0
15.6 0.2 0
15.9 0.2 0
16.2 0.2 0
16.5 0.2 0
16.8 0.2 0
17.1 0.2 0
17.4 0.2 0
17.7 0.2 0
18 0.2 0
18.3 0.2 0
18.6 0.2 0
18.9 0.2 0
19.2 0.2 0
19.5 0.2 0
19.8 0.2 0
20.1 0.2 0
20.4 0.2 0
20.7 0.2 0
21 0.2 0
21.3 0.2 0
21.6 0.2 0
21.9 0.2 0
22.2 0.2 0
22.5 0.2 0
22.8 0.2 0
23.1 0.2 0
23.4 0.2 0
23.7 0.2 0
24 0.2 0
24.3 0.2 0
24.6 0.2 0
24.9 0.2 0
25.2 0.2 0
25.5 0.2 0
25.8 0.2 0
26.1 0.2 0
26.4 0.2 0
26.7 0.2 0
27 0.2 0
27.3 0.2 0
27.6 0.2 0
27.9 0.2 0
28.2 0.2 0
28.5 0.2 0
28.8 0.2 0
29.1 0.2 0
29.4 0.2 0
29.7 0.2 0
30 0.2 0
0 0.3 0
0.3 0.3 0
0.6 0.3 0
0.9 0.3 0
1.2 0.3 0
1.5 0.3 0
1.8 0.3 0
2.1 0.3 0
2.4 0.3 0
2.7 0.3 0
3 0.3 0
3.3 0.3 0
3.6 0.3 0
3.9 0.3 0
4.2 0.3 0
4.5 0.3 0
4.8 0.3 0
5.1 0.3 0
5.4 0.3 0
5.7 0.3 0
6 0.3 0
6.3 0.3 0
6.6 0.3 0
6.9 0.3 0
7.2 0.3 0
7.5 0.3 0
7.8 0.3 0
8.1 0.3 0
8.4 0.3 0
8.7 0.3 0
9 0.3 0
9.3 0.3 0
9.6 0.3 0
9.9 0.3 0
10.2 0.3 0
10.5 0.3 0
10.8 0.3 0
11.1 0.3 0
11.4 0.3 0
11.7 0.3 0
12 0.3 0
12.3 0.3 0
12.6 0.3 0
12.9 0.3 0
13.2 0.3 0
13.5 0.3 0
13.8 0.3 0
14.1 0.3 0
14.4 0.3 0
14.7 0.3 0
15 0.3 0
15.3 0.3 0
15.6 0.3 0
15.9 0.3 0
16.2 0.3 0
16.5 0.3 0
16.8 0.3 0
17.1 0.3 0
17.4 0.3 0
17.7 0.3 0
18 0.3 0
18.3 0.3 0
18.6 0.3 0
18.9 0.3 0
19.2 0.3 0
19.5 0.3 0
19.8 0.3 0
20.1 0.3 0
20.4 0.3 0
20.7 0.3 0
21 0.3 0
21.3 0.3 0
21.6 0.3 0
21.9 0.3 0
22.2 0.3 0
22.5 0.3 0
22.8 0.3 0
23.1 0.3 0
23.4 0.3 0
23.7 0.3 0
24 0.3 0
24.3 0.3 0
24.6 0.3 0
24.9 0.3 0
25.2 0.3 0
25.5 0.3 0
25.8 0.3 0
26.1 0.3 0
26.4 0.3 0
26.7 0.3 0
27 0.3 0
27.3 0.3 0
27.6 0.3 0
27.9 0.3 0
28.2 0.3 0
28.5 0.3 0
28.8 0.3 0
29.1 0.3 0
29.4 0.3 0
29.7 0.3 0
30 0.3 0
0 0.4 0
0.3 0.4 0
0.6 0.4 0
0.9 0.4 0
1.2 0.4 0
1.5 0.4 0
1.8 0.4 0
2.1 0.4 0
2.4 0.4 0
2.7 0.4 0
3 0.4 0
3.3 0.4 0
3.6 0.4 0
3.9 0.4 0
4.2 0.4 0
4.5 0.4 0
4.8 0.4 0
5.1 0.4 0
5.4 0.4 0
5.7 0.4 0
6 0.4 0
6.3 0.4 0
6.6 0.4 0
6.9 0.4 0
7.2 0.4 0
7.5 0.4 0
7.8 0.4 0
8.1 0.4 0
8.4 0.4 0
8.7 0.4 0
9 0.4 0
9.3 0.4 0
9.6 0.4 0
9.9 0.4 0
10.2 0.4 0
10.5 0.4 0
10.8 0.4 0
11.1 0.4 0
11.4 0.4 0
11.7 0.4 0
12 0.4 0
12.3 0.4 0
12.6 0.4 0
12.9 0.4 0
13.2 0.4 0
13.5 0.4 0
13.8 0.4 0
14.1 0.4 0
14.4 0.4 0
14.7 0.4 0
15 0.4 0
15.3 0.4 0
15.6 0.4 0
15.9 0.4 0
16.2 0.4 0
16.5 0.4 0
16.8 0.4 0
17.1 0.4 0
17.4 0.4 0
17.7 0.4 0
18 0.4 0
18.3 0.4 0
18.6 0.4 0
18.9 0.4 0
19.2 0.4 0
19.5 0.4 0
19.8 0.4 0
20.1 0.4 0
20.4 0.4 0
20.7 0.4 0
21 0.4 0
21.3 0.4 0
21.6 0.4 0
21.9 0.4 0
22.2 0.4 0
22.5 0.4 0
22.8 0.4 0
23.1 0.4 0
23.4 0.4 0
23.7 0.4 0
24 0.4 0
24.3 0.4 0
24.6 0.4 0
24.9 0.4 0
25.2 0.4 0
25.5 0.4 0
25.8 0.4 0
26.1 0.4 0
26.4 0.4 0
26.7 0.4 0
27 0.4 0
27.3 0.4 0
27.6 0.4 0
27.9 0.4 0
28.2 0.4 0
28.5 0.4 0
28.8 0.4 0
29.1 0.4 0
29.4 0.4 0
29.7 0.4 0
30 0.4 0
0 0.5 0
0.3 0.5 0
0.6 0.5 0
0.9 0.5 0
1.2 0.5 0
1.5 0.5 0
1.8 0.5 0
2.1 0.5 0
2.4 0.5 0
2.7 0.5 0
3 0.5 0
3.3 0.5 0
3.6 0.5 0
3.9 0.5 0
4.2 0.5 0
4.5 0.5 0
4.8 0.5 0
5.1 0.5 0
5.4 0.5 0
5.7 0.5 0
6 0.5 0
6.3 0.5 0
6.6 0.5 0
6.9 0.5 0
7.2 0.5 0
7.5 0.5 0
7.8 0.5 0
8.1 0.5 0
8.4 0.5 0
8.7 0.5 0
9 0.5 0
9.3 0.5 0
9.6 0.5 0
9.9 0.5 0
10.2 0.5 0
10.5 0.5 0
10.8 0.5 0
11.1 0.5 0
11.4 0.5 0
11.7 0.5 0
12 0.5 0
12.3 0.5 0
12.6 0.5 0
12.9 0.5 0
13.2 0.5 0
13.5 0.5 0
13.8 0.5 0
14.1 0.5 0
14.4 0.5 0
14.7 0.5 0
15 0.5 0
15.3 0.5 0
15.6 0.5 0
15.9 0.5 0
16.2 0.5 0
16.5 0.5 0
16.8 0.5 0
17.1 0.5 0
17.4 0.5 0
17.7 0.5 0
18 0.5 0
18.3 0.5 0
18.6 0.5 0
18.9 0.5 0
19.2 0.5 0
19.5 0.5 0
19.8 0.5 0
20.1 0.5 0
20.4 0.5 0
20.7 0.5 0
21 0.5 0
21.3 0.5 0
21.6 0.5 0
21.9 0.5 0
22.2 0.5 0
22.5 0.5 0
22.8 0.5 0
23.1 0.5 0
23.4 0.5 0
23.7 0.5 0
24 0.5 0
24.3 0.5 0
24.6 0.5 0
24.9 0.5 0
25.2 0.5 0
25.5 0.5 0
25.8 0.5 0
26.1 0.5 0
26.4 0.5 0
26.7 0.5 0
27 0.5 0
27.3 0.5 0
27.6 0.5 0
27.9 0.5 0
28.2 0.5 0
28.5 0.5 0
28.8 0.5 0
29.1 0.5 0
29.4 0.5 0
29.7 0.5 0
30 0.5 0
0 0.6 0
0.3 0.6 0
0.6 0.6 0
0.9 0.6 0
1.2 0.6 0
1.5 0.6 0
1.8 0.6 0
2.1 0.6 0
2.4 0.6 0
2.7 0.6 0
3 0.6 0
3.3 0.6 0
3.6 0.6 0
3.9 0.6 0
4.2 0.6 0
4.5 0.6 0
4.8 0.6 0
5.1 0.6 0
5.4 0.6 0
5.7 0.6 0
6 0.6 0
6.3 0.6 0
6.6 0.6 0
6.9 0.6 0
7.2 0.6 0
7.5 0.6 0
7.8 0.6 0
8.1 0.6 0
8.4 0.6 0
8.7 0.6 0
9 0.6 0
9.3 0.6 0
9.6 0.6 0
9.9 0.6 0
10.2 0.6 0
10.5 0.6 0
10.8 0.6 0
11.1 0.6 0
11.4 0.6 0
11.7 0.6 0
12 0.6 0
12.3 0.6 0
12.6 0.6 0
12.9 0.6 0
13.2 0.6 0
13.5 0.6 0
13.8 0.6 0
14.1 0.6 0
14.4 0.6 0
14.7 0.6 0
15 0.6 0
15.3 0.6 0
15.6 0.6 0
15.9 0.6 0
16.2 0.6 0
16.5 0.6 0
16.8 0.6 0
17.1 0.6 0
17.4 0.6 0
17.7 0.6 0
18 0.6 0
18.3 0.6 0
18.6 0.6 0
18.9 0.6 0
19.2 0.6 0
19.5 0.6 0
19.8 0.6 0
20.1 0.6 0
20.4 0.6 0
20.7 0.6 0
21 0.6 0
21.3 0.6 0
21.6 0.6 0
21.9 0.6 0
22.2 0.6 0
22.5 0.6 0
22.8 0.6 0
23.1 0.6 0
23.4 0.6 0
23.7 0.6 0
24 0.6 0
24.3 0.6 0
24.6 0.6 0
24.9 0.6 0
25.2 0.6 0
25.5 0.6 0
25.8 0.6 0
26.1 0.6 0
26.4 0.6 0
26.7 0.6 0
27 0.6 0
27.3 0.6 0
27.6 0.6 0
27.9 0.6 0
28.2 0.6 0
28.5 0.6 0
28.8 0.6 0
29.1 0.6 0
29.4 0.6 0
29.7 0.6 0
30 0.6 0
0 0.7 0
0.3 0.7 0
0.6 0.7 0
0.9 0.7 0
1.2 0.7 0
1.5 0.7 0
1.8 0.7 0
2.1 0.7 0
2.4 0.7 0
2.7 0.7 0
3 0.7 0
3.3 0.7 0
3.6 0.7 0
3.9 0.7 0
4.2 0.7 0
4.5 0.7 0
4.8 0.7 0
5.1 0.7 0
5.4 0.7 0
5.7 0.7 0
6 0.7 0
6.3 0.7 0
6.6 0.7 0
6.9 0.7 0
7.2 0.7 0
7.5 0.7 0
7.8 0.7 0
8.1 0.7 0
8.4 0.7 0
8.7 0.7 0
9 0.7 0
9.3 0.7 0
9.6 0.7 0
9.9 0.7 0
10.2 0.7 0
10.5 0.7 0
10.8 0.7 0
11.1 0.7 0
11.4 0.7 0
11.7 0.7 0
12 0.7 0
12.3 0.7 0
12.6 0.7 0
12.9 0.7 0
13.2 0.7 0
13.5 0.7 0
13.8 0.7 0
14.1 0.7 0
14.4 0.7 0
14.7 0.7 0
15 0.7 0
15.3 0.7 0
15.6 0.7 0
15.9 0.7 0
16.2 0.7 0
16.5 0.7 0
16.8 0.7 0
17.1 0.7 0
17.4 0.7 0
17.7 0.7 0
18 0.7 0
18.3 0.7 0
18.6 0.7 0
18.9 0.7 0
19.2 0.7 0
19.5 0.7 0
19.8 0.7 0
20.1 0.7 0
20.4 0.7 0
20.7 0.7 0
21 0.7 0
21.3 0.7 0
21.6 0.7 0
21.9 0.7 0
22.2 0.7 0
22.5 0.7 0
22.8 0.7 0
23.1 0.7 0
23.4 0.7 0
23.7 0.7 0
24 0.7 0
24.3 0.7 0
24.6 0.7 0
24.9 0.7 0
25.2 0.7 0
25.5 0.7 0
25.8 0.7 0
26.1 0.7 0
26.4 0.7 0
26.7 0.7 0
27 0.7 0
27.3 0.7 0
27.6 0.7 0
27.9 0.7 0
28.2 0.7 0
28.5 0.7 0
28.8 0.7 0
29.1 0.7 0
29.4 0.7 0
29.7 0.7 0
30 0.7 0
0 0.8 0
0.3 0.8 0
0.6 0.8 0
0.9 0.8 0
1.2 0.8 0
1.5 0.8 0
1.8 0.8 0
2.1 0.8 0
2.4 0.8 0
2.7 0.8 0
3 0.8 0
3.3 0.8 0
3.6 0.8 0
3.9 0.8 0
4.2 0.8 0
4.5 0.8 0
4.8 0.8 0
5.1 0.8 0
5.4 0.8 0
5.7 0.8 0
6 0.8 0
6.3 0.8 0
6.6 0.8 0
6.9 0.8 0
7.2 0.8 0
7.5 0.8 0
7.8 0.8 0
8.1 0.8 0
8.4 0.8 0
8.7 0.8 0
9 0.8 0
9.3 0.8 0
9.6 0.8 0
9.9 0.8 0
10.2 0.8 0
10.5 0.8 0
10.8 0.8 0
11.1 0.8 0
11.4 0.8 0
11.7 0.8 0
12 0.8 0
12.3 0.8 0
12.6 0.8 0
12.9 0.8 0
13.2 0.8 0
13.5 0.8 0
13.8 0.8 0
14.1 0.8 0
14.4 0.8 0
14.7 0.8 0
15 0.8 0
15.3 0.8 0
15.6 0.8 0
15.9 0.8 0
16.2 0.8 0
16.5 0.8 0
16.8 0.8 0
17.1 0.8 0
17.4 0.8 0
17.7 0.8 0
18 0.8 0
18.3 0.8 0
18.6 0.8 0
18.9 0.8 0
19.2 0.8 0
19.5 0.8 0
19.8 0.8 0
20.1 0.8 0
20.4 0.8 0
20.7 0.8 0
21 0.8 0
21.3 0.8 0
21.6 0.8 0
21.9 0.8 0
22.2 0.8 0
22.5 0.8 0
22.8 0.8 0
23.1 0.8 0
23.4 0.8 0
23.7 0.8 0
24 0.8 0
24.3 0.8 0
24.6 0.8 0
24.9 0.8 0
25.2 0.8 0
25.5 0.8 0
25.8 0.8 0
26.1 0.8 0
26.4 0.8 0
26.7 0.8 0
27 0.8 0
27.3 0.8 0
27.6 0.8 0
27.9 0.8 0
28.2 0.8 0
28.5 0.8 0
28.8 0.8 0
29.1 0.8 0
29.4 0.8 0
29.7 0.8 0
30 0.8 0
0 0.9 0
0.3 0.9 0
0.6 0.9 0
0.9 0.9 0
1.2 0.9 0
1.5 0.9 0
1.8 0.9 0
2.1 0.9 0
2.4 0.9 0
2.7 0.9 0
3 0.9 0
3.3 0.9 0
3.6 0.9 0
3.9 0.9 0
4.2 0.9 0
4.5 0.9 0
4.8 0.9 0
5.1 0.9 0
5.4 0.9 0
5.7 0.9 0
6 0.9 0
6.3 0.9 0
6.6 0.9 0
6.9 0.9 0
7.2 0.9 0
7.5 0.9 0
7.8 0.9 0
8.1 0.9 0
8.4 0.9 0
8.7 0.9 0
9 0.9 0
9.3 0.9 0
9.6 0.9 0
9.9 0.9 0
10.2 0.9 0
10.5 0.9 0
10.8 0.9 0
11.1 0.9 0
11.4 0.9 0
11.7 0.9 0
12 0.9 0
12.3 0.9 0
12.6 0.9 0
12.9 0.9 0
13.2 0.9 0
13.5 0.9 0
13.8 0.9 0
14.1 0.9 0
14.4 0.9 0
14.7 0.9 0
15 0.9 0
15.3 0.9 0
15.6 0.9 0
15.9 0.9 0
16.2 0.9 0
16.5 0.9 0
16.8 0.9 0
17.1 0.9 0
17.4 0.9 0
17.7 0.9 0
18 0.9 0
18.3 0.9 0
18.6 0.9 0
18.9 0.9 0
19.2 0.9 0
19.5 0.9 0
19.8 0.9 0
20.1 0.9 0
20.4 0.9 0
20.7 0.9 0
21 0.9 0
21.3 0.9 0
21.6 0.9 0
21.9 0.9 0
22.2 0.9 0
22.5 0.9 0
22.8 0.9 0
23.1 0.9 0
23.4 0.9 0
23.7 0.9 0
24 0.9 0
24.3 0.9 0
24.6 0.9 0
24.9 0.9 0
25.2 0.9 0
25.5 0.9 0
25.8 0.9 0
26.1 0.9 0
26.4 0.9 0
26.7 0.9 0
27 0.9 0
27.3 0.9 0
27.6 0.9 0
27.9 0.9 0
28.2 0.9 0
28.5 0.9 0
28.8 0.9 0
29.1 0.9 0
29.4 0.9 0
29.7 0.9 0
30 0.9 0
0 1 0
0.3 1 0
0.6 1 0
0.9 1 0
1.2 1 0
1.5 1 0
1.8 1 0
2.1 1 0
2.4 1 0
2.7 1 0
3 1 0
3.3 1 0
3.6 1 0
3.9 1 0
4.2 1 0
4.5 1 0
4.8 1 0
5.1 1 0
5.4 1 0
5.7 1 0
6 1 0
6.3 1 0
6.6 1 0
6.9 1 0
7.2 1 0
7.5 1 0
7.8 1 0
8.1 1 0
8.4 1 0
8.7 1 0
9 1 0
9.3 1 0
9.6 1 0
9.9 1 0
10.2 1 0
10.5 1 0
10.8 1 0
11.1 1 0
11.4 1 0
11.7 1 0
12 1 0
12.3 1 0
12.6 1 0
12.9 1 0
13.2 1 0
13.5 1 0
13.8 1 0
14.1 1 0
14.4 1 0
14.7 1 0
15 1 0
15.3 1 0
15.6 1 0
15.9 1 0
16.2 1 0
16.5 1 0
16.8 1 0
17.1 1 0
17.4 1 0
17.7 1 0
18 1 0
18.3 1 0
18.6 1 0
18.9 1 0
19.2 1 0
19.5 1 0
19.8 1 0
20.1 1 0
20.4 1 0
20.7 1 0
21 1 0
21.3 1 0
21.6 1 0
21.9 1 0
22.2 1 0
22.5 1 0
22.8 1 0
23.1 1 0
23.4 1 0
23.7 1 0
24 1 0
24.3 1 0
24.6 1 0
24.9 1 0
25.2 1 0
25.5 1 0
25.8 1 0
26.1 1 0
26.4 1 0
26.7 1 0
27 1 0
27.3 1 0
27.6 1 0
27.9 1 0
28.2 1 0
28.5 1 0
28.8 1 0
29.1 1 0
29.4 1 0
29.7 1 0
30 1 0

POINT_DATA 1111

SCALARS phi double
LOOKUP_TABLE default
1
1
1
0.999994
0.999972
0.999915
0.999796
0.999583
0.999241
0.998737
0.998043
0.997137
0.996001
0.994626
0.993007
0.991142
0.989033
0.986688
0.984115
0.981323
0.978324
0.975132
0.97176
0.96822
0.964528
0.960697
0.95674
0.952671
0.948502
0.944245
0.939911
0.935512
0.931057
0.926557
0.922019
0.917452
0.912865
0.908263
0.903653
0.899042
0.894432
0.889829
0.885233
0.880646
0.876065
0.871489
0.86691
0.862321
0.857712
0.853072
0.848386
0.84364
0.838817
0.8339
0.828872
0.823715
0.818412
0.812947
0.807305
0.801471
0.795432
0.789179
0.7827
0.77599
0.769042
0.761853
0.754422
0.746749
0.738835
0.730684
0.722302
0.713694
0.704868
0.695834
0.686601
0.677179
0.66758
0.657816
0.647898
0.637838
0.627651
0.617347
0.606939
0.596441
0.585864
0.575219
0.56452
0.553776
0.542999
0.532199
0.521387
0.51057
0.49976
0.488961
0.478193
0.467426
0.45679
0.44588
0.436103
0.422605
0.422605
1
1
1
0.999994
0.999972
0.999915
0.999796
0.999583
0.999241
0.998737
0.998043
0.997137
0.996001
0.994626
0.993007
0.991142
0.989033
0.986688
0.984115
0.981323
0.978324
0.975132
0.97176
0.96822
0.964528
0.960697
0.95674
0.952671
0.948502
0.944245
0.939911
0.935512
0.931057
0.926557
0.922019
0.917452
0.912865
0.908263
0.903653
0.899042
0.894432
0.889829
0.885233
0.880646
0.876065
0.871489
0.86691
0.862321
0.857712
0.853072
0.848386
0.84364
0.838817
0.8339
0.828872
0.823715
0.818412
0.812947
0.807305
0.801471
0.795432
0.789179
0.7827
0.77599
0.769042
0.761853
0.754422
0.746749
0.738835
0.730684
0.722302
0.713694
0.704868
0.695834
0.686601
0.677179
0.66758
0.657816
0.647898
0.637838
0.627651
0.617347
0.606939
0.596441
0.585864
0.575219
0.56452
0.553776
0.542999
0.532199
0.521387
0.51057
0.49976
0.488961
0.478193
0.467426
0.45679
0.44588
0.436103
0.422605
0.422605
0.999997
1
0.999982
0.999903
0.99973
0.999422
0.998942
0.998257
0.99734
0.996174
0.994749
0.99306
0.99111
0.988905
0.986455
0.983773
0.98087
0.977762
0.974464
0.97099
0.967356
0.963575
0.959662
0.955631
0.951494
0.947265
0.942954
0.938574
0.934134
0.929643
0.925113
0.92055
0.915962
0.911357
0.906742
0.902122
0.897504
0.892892
0.888292
0.883707
0.879142
0.874599
0.870081
0.86559
0.861126
0.85669
0.852281
0.847895
0.843529
0.839177
0.834832
0.830486
0.82613
0.821752
0.81734
0.812883
0.808366
0.803777
0.799101
0.794324
0.789434
0.784418
0.779263
0.773959
0.768495
0.762862
0.757053
0.751061
0.744882
0.738511
0.731946
0.725187
0.718233
0.711085
0.703747
0.696222
0.688514
0.68063
0.672574
0.664354
0.655978
0.647452
0.638787
0.629989
0.621069
0.612034
0.602895
0.59366
0.584337
0.574937
0.565468
0.555937
0.546355
0.536726
0.52707
0.517352
0.507723
0.497714
0.488892
0.476159
0.476159
1
0.999999
0.99946
0.998318
0.996569
0.994237
0.991359
0.987986
0.984174
0.979985
0.975479
0.970715
0.965744
0.960613
0.955362
0.950025
0.944629
0.9392
0.933756
0.928313
0.922885
0.917483
0.912115
0.906789
0.901509
0.896282
0.891109
0.885995
0.880941
0.875948
0.871018
0.866152
0.861349
0.856612
0.851938
0.847329
0.842784
0.838303
0.833886
0.829532
0.82524
0.82101
0.816841
0.812733
0.808684
0.804693
0.80076
0.796881
0.793055
0.789279
0.785549
0.781862
0.778213
0.774597
0.771007
0.767437
0.763879
0.760325
0.756767
0.753196
0.749601
0.745974
0.742305
0.738583
0.7348
0.730945
0.727009
0.722983
0.718859
0.71463
0.710287
0.705824
0.701236
0.696518
0.691665
0.686673
0.68154
0.676264
0.670844
0.665278
0.659569
0.653715
0.647718
0.641581
0.635305
0.628895
0.622352
0.615681
0.608885
0.601969
0.594937
0.587793
0.580544
0.57319
0.56575
0.558183
0.550636
0.542671
0.535687
0.525297
0.525297
1.00152
0.998478
0.989845
0.978523
0.966041
0.953192
0.940393
0.927875
0.915766
0.904141
0.893035
0.882463
0.87242
0.862891
0.853856
0.845287
0.837157
0.829439
0.822103
0.815125
0.808478
0.80214
0.796087
0.790301
0.784762
0.779454
0.77436
0.769467
0.76476
0.760229
0.755861
0.751646
0.747575
0.74364
0.739832
0.736144
0.732569
0.729101
0.725735
0.722465
0.719286
0.716193
0.713183
0.710252
0.707395
0.70461
0.701893
0.69924
0.69665
0.694119
0.691644
0.689221
0.686848
0.684522
0.682239
0.679995
0.677786
0.675608
0.673456
0.671326
0.669212
0.667108
0.66501
0.662911
0.660804
0.658684
0.656543
0.654375
0.652173
0.649931
0.647641
0.645297
0.642893
0.640421
0.637877
0.635254
0.632546
0.629749
0.626856
0.623864
0.620769
0.617566
0.614251
0.610823
0.607277
0.603612
0.599826
0.595916
0.591881
0.587721
0.583434
0.57902
0.574479
0.569809
0.56502
0.560078
0.555093
0.549729
0.54502
0.537793
0.537793
1.04956
0.950436
0.872951
0.815234
0.771993
0.739004
0.713323
0.692935
0.676455
0.662919
0.651641
0.642125
0.634005
0.627008
0.620923
0.61559
0.61088
0.606694
0.60295
0.599584
0.596543
0.593782
0.591265
0.588964
0.586851
0.584905
0.583109
0.581447
0.579906
0.578473
0.577139
0.575895
0.574733
0.573646
0.572629
0.571676
0.570781
0.569941
0.569152
0.56841
0.567712
0.567055
0.566436
0.565853
0.565303
0.564784
0.564295
0.563834
0.563398
0.562986
0.562597
0.562229
0.561881
0.561551
0.561237
0.560938
0.560652
0.560378
0.560114
0.559857
0.559605
0.559357
0.559109
0.558859
0.558603
0.55834
0.558064
0.557773
0.557462
0.557129
0.556767
0.556374
0.555944
0.555473
0.554955
0.554387
0.553762
0.553076
0.552323
0.551499
0.550598
0.549615
0.548545
0.547382
0.546123
0.544761
0.543292
0.541712
0.540016
0.5382
0.536259
0.534189
0.531988
0.529648
0.527175
0.524542
0.521818
0.518778
0.516091
0.511744
0.511744
-0.0440411
0.0440411
0.104658
0.147826
0.179978
0.204969
0.225119
0.241852
0.256065
0.268346
0.279103
0.288632
0.297153
0.30484
0.31183
0.318232
0.324136
0.329615
0.334729
0.339527
0.344051
0.348335
0.352408
0.356294
0.360014
0.363586
0.367024
0.370342
0.373551
0.37666
0.379679
0.382613
0.385471
0.388257
0.390976
0.393633
0.396232
0.398777
0.401269
0.403713
0.40611
0.408463
0.410773
0.413043
0.415274
0.417467
0.419624
0.421746
0.423833
0.425888
0.42791
0.429901
0.431861
0.433791
0.43569
0.437561
0.439402
0.441215
0.442999
0.444753
0.446479
0.448175
0.449841
0.451475
0.453078
0.454648
0.456183
0.457682
0.459142
0.460561
0.461938
0.463268
0.46455
0.465779
0.466952
0.468064
0.469113
0.470093
0.470999
0.471828
0.472572
0.473229
0.473791
0.474253
0.474611
0.474857
0.474986
0.474993
0.474871
0.474615
0.47422
0.473678
0.472987
0.472137
0.471131
0.469945
0.468628
0.467021
0.46557
0.462965
0.462965
-0.00135393
0.00135393
0.00757106
0.0154113
0.0241244
0.0333479
0.0428735
0.0525556
0.0622788
0.07195
0.0814968
0.0908662
0.100022
0.108944
0.11762
0.126049
0.134233
0.142179
0.149896
0.157395
0.164686
0.171781
0.178688
0.185419
0.191982
0.198387
0.204641
0.210752
0.216726
0.222571
0.22829
0.23389
0.239375
0.24475
0.250018
0.255184
0.26025
0.26522
0.270097
0.274883
0.27958
0.284192
0.288721
0.293168
0.297535
0.301825
0.306039
0.310178
0.314245
0.318242
0.322168
0.326026
0.329818
0.333543
0.337203
0.3408
0.344334
0.347805
0.351215
0.354562
0.357848
0.361073
0.364236
0.367336
0.370372
0.373344
0.37625
0.379088
0.381856
0.384552
0.387172
0.389715
0.392175
0.39455
0.396835
0.399026
0.401119
0.403107
0.404987
0.406752
0.408396
0.409915
0.411302
0.41255
0.413654
0.414607
0.415404
0.416037
0.416502
0.416792
0.416901
0.416823
0.416555
0.416089
0.415427
0.414546
0.413493
0.412118
0.410847
0.408435
0.408435
-1.12304e-05
1.12304e-05
0.000371135
0.00113545
0.00236809
0.00411785
0.00641416
0.00926464
0.0126562
0.0165593
0.0209329
0.0257304
0.0309028
0.036402
0.0421821
0.0482008
0.0544193
0.0608023
0.0673182
0.0739388
0.0806389
0.087396
0.0941902
0.101004
0.107821
0.114629
0.121414
0.128167
0.134878
0.141539
0.148144
0.154686
0.16116
0.167561
0.173887
0.180134
0.186299
0.192382
0.198379
0.20429
0.210114
0.215851
0.2215
0.227061
0.232534
0.23792
0.243219
0.248431
0.253557
0.258598
0.263554
0.268426
0.273214
0.27792
0.282542
0.287082
0.291539
0.295913
0.300204
0.30441
0.308532
0.312566
0.316512
0.320368
0.32413
0.327797
0.331365
0.33483
0.338188
0.341435
0.344567
0.347578
0.350464
0.353218
0.355834
0.358307
0.360631
0.362799
0.364804
0.366641
0.368302
0.369781
0.371072
0.372168
0.373064
0.373753
0.37423
0.374489
0.374526
0.374336
0.373916
0.37326
0.372368
0.371234
0.369862
0.368233
0.366404
0.364196
0.362155
0.358619
0.358619
1.70138e-06
-1.70138e-06
1.49765e-05
9.33843e-05
0.000299334
0.000718214
0.00144362
0.00256259
0.00414307
0.0062276
0.00883328
0.0119559
0.0155752
0.0196605
0.0241746
0.0290772
0.0343265
0.0398817
0.0457028
0.0517522
0.0579944
0.0643967
0.0709289
0.0775635
0.0842757
0.0910431
0.0978456
0.104665
0.111487
0.118295
0.125079
0.131828
0.138532
0.145183
0.151774
0.1583
0.164755
0.171135
0.177437
0.183658
0.189795
0.195847
0.201812
0.20769
0.213479
0.219179
0.224789
0.23031
0.235741
0.241083
0.246335
0.251497
0.256569
0.26155
0.266439
0.271235
0.275938
0.280545
0.285055
0.289464
0.293771
0.297971
0.302061
0.306038
0.309896
0.31363
0.317236
0.320707
0.324038
0.327223
0.330254
0.333126
0.33583
0.338361
0.340711
0.342873
0.344839
0.346604
0.348159
0.349498
0.350614
0.351503
0.352156
0.352571
0.35274
0.352661
0.352328
0.351739
0.350892
0.349783
0.348412
0.346778
0.344882
0.342722
0.340305
0.337617
0.334717
0.331424
0.328342
0.323506
0.323506
1.70138e-06
-1.70138e-06
1.49765e-05
9.33843e-05
0.000299334
0.000718214
0.00144362
0.00256259
0.00414307
0.0062276
0.00883328
0.0119559
0.0155752
0.0196605
0.0241746
0.0290772
0.0343265
0.0398817
0.0457028
0.0517522
0.0579944
0.0643967
0.0709289
0.0775635
0.0842757
0.0910431
0.0978456
0.104665
0.111487
0.118295
0.125079
0.131828
0.138532
0.145183
0.151774
0.1583
0.164755
0.171135
0.177437
0.183658
0.189795
0.195847
0.201812
0.20769
0.213479
0.219179
0.224789
0.23031
0.235741
0.241083
0.246335
0.251497
0.256569
0.26155
0.266439
0.271235
0.275938
0.280545
0.285055
0.289464
0.293771
0.297971
0.302061
0.306038
0.309896
0.31363
0.317236
0.320707
0.324038
0.327223
0.330254
0.333126
0.33583
0.338361
0.340711
0.342873
0.344839
0.346604
0.348159
0.349498
0.350614
0.351503
0.352156
0.352571
0.35274
0.352661
0.352328
0.351739
0.350892
0.349783
0.348412
0.346778
0.344882
0.342722
0.340305
0.337617
0.334717
0.331424
0.328342
0.323506
0.323506
