# vtk DataFile Version 2.0
FlowField
ASCII
DATASET STRUCTURED_GRID
DIMENSIONS 102 1 12 
POINTS 1224 double
0 0 0
0.4 0 0
0.8 0 0
1.2 0 0
1.6 0 0
2 0 0
2.4 0 0
2.8 0 0
3.2 0 0
3.6 0 0
4 0 0
4.4 0 0
4.8 0 0
5.2 0 0
5.6 0 0
6 0 0
6.4 0 0
6.8 0 0
7.2 0 0
7.6 0 0
8 0 0
8.4 0 0
8.8 0 0
9.2 0 0
9.6 0 0
10 0 0
10.4 0 0
10.8 0 0
11.2 0 0
11.6 0 0
12 0 0
12.4 0 0
12.8 0 0
13.2 0 0
13.6 0 0
14 0 0
14.4 0 0
14.8 0 0
15.2 0 0
15.6 0 0
16 0 0
16.4 0 0
16.8 0 0
17.2 0 0
17.6 0 0
18 0 0
18.4 0 0
18.8 0 0
19.2 0 0
19.6 0 0
20 0 0
20.4 0 0
20.8 0 0
21.2 0 0
21.6 0 0
22 0 0
22.4 0 0
22.8 0 0
23.2 0 0
23.6 0 0
24 0 0
24.4 0 0
24.8 0 0
25.2 0 0
25.6 0 0
26 0 0
26.4 0 0
26.8 0 0
27.2 0 0
27.6 0 0
28 0 0
28.4 0 0
28.8 0 0
29.2 0 0
29.6 0 0
30 0 0
30.4 0 0
30.8 0 0
31.2 0 0
31.6 0 0
32 0 0
32.4 0 0
32.8 0 0
33.2 0 0
33.6 0 0
34 0 0
34.4 0 0
34.8 0 0
35.2 0 0
35.6 0 0
36 0 0
36.4 0 0
36.8 0 0
37.2 0 0
37.6 0 0
38 0 0
38.4 0 0
38.8 0 0
39.2 0 0
39.6 0 0
40 0 0
40.4 0 0
0 0.1 0
0.4 0.1 0
0.8 0.1 0
1.2 0.1 0
1.6 0.1 0
2 0.1 0
2.4 0.1 0
2.8 0.1 0
3.2 0.1 0
3.6 0.1 0
4 0.1 0
4.4 0.1 0
4.8 0.1 0
5.2 0.1 0
5.6 0.1 0
6 0.1 0
6.4 0.1 0
6.8 0.1 0
7.2 0.1 0
7.6 0.1 0
8 0.1 0
8.4 0.1 0
8.8 0.1 0
9.2 0.1 0
9.6 0.1 0
10 0.1 0
10.4 0.1 0
10.8 0.1 0
11.2 0.1 0
11.6 0.1 0
12 0.1 0
12.4 0.1 0
12.8 0.1 0
13.2 0.1 0
13.6 0.1 0
14 0.1 0
14.4 0.1 0
14.8 0.1 0
15.2 0.1 0
15.6 0.1 0
16 0.1 0
16.4 0.1 0
16.8 0.1 0
17.2 0.1 0
17.6 0.1 0
18 0.1 0
18.4 0.1 0
18.8 0.1 0
19.2 0.1 0
19.6 0.1 0
20 0.1 0
20.4 0.1 0
20.8 0.1 0
21.2 0.1 0
21.6 0.1 0
22 0.1 0
22.4 0.1 0
22.8 0.1 0
23.2 0.1 0
23.6 0.1 0
24 0.1 0
24.4 0.1 0
24.8 0.1 0
25.2 0.1 0
25.6 0.1 0
26 0.1 0
26.4 0.1 0
26.8 0.1 0
27.2 0.1 0
27.6 0.1 0
28 0.1 0
28.4 0.1 0
28.8 0.1 0
29.2 0.1 0
29.6 0.1 0
30 0.1 0
30.4 0.1 0
30.8 0.1 0
31.2 0.1 0
31.6 0.1 0
32 0.1 0
32.4 0.1 0
32.8 0.1 0
33.2 0.1 0
33.6 0.1 0
34 0.1 0
34.4 0.1 0
34.8 0.1 0
35.2 0.1 0
35.6 0.1 0
36 0.1 0
36.4 0.1 0
36.8 0.1 0
37.2 0.1 0
37.6 0.1 0
38 0.1 0
38.4 0.1 0
38.8 0.1 0
39.2 0.1 0
39.6 0.1 0
40 0.1 0
40.4 0.1 0
0 0.2 0
0.4 0.2 0
0.8 0.2 0
1.2 0.2 0
1.6 0.2 0
2 0.2 0
2.4 0.2 0
2.8 0.2 0
3.2 0.2 0
3.6 0.2 0
4 0.2 0
4.4 0.2 0
4.8 0.2 0
5.2 0.2 0
5.6 0.2 0
6 0.2 0
6.4 0.2 0
6.8 0.2 0
7.2 0.2 0
7.6 0.2 0
8 0.2 0
8.4 0.2 0
8.8 0.2 0
9.2 0.2 0
9.6 0.2 0
10 0.2 0
10.4 0.2 0
10.8 0.2 0
11.2 0.2 0
11.6 0.2 0
12 0.2 0
12.4 0.2 0
12.8 0.2 0
13.2 0.2 0
13.6 0.2 0
14 0.2 0
14.4 0.2 0
14.8 0.2 0
15.2 0.2 0
15.6 0.2 0
16 0.2 0
16.4 0.2 0
16.8 0.2 0
17.2 0.2 0
17.6 0.2 0
18 0.2 0
18.4 0.2 0
18.8 0.2 0
19.2 0.2 0
19.6 0.2 0
20 0.2 0
20.4 0.2 0
20.8 0.2 0
21.2 0.2 0
21.6 0.2 0
22 0.2 0
22.4 0.2 0
22.8 0.2 0
23.2 0.2 0
23.6 0.2 0
24 0.2 0
24.4 0.2 0
24.8 0.2 0
25.2 0.2 0
25.6 0.2 0
26 0.2 0
26.4 0.2 0
26.8 0.2 0
27.2 0.2 0
27.6 0.2 0
28 0.2 0
28.4 0.2 0
28.8 0.2 0
29.2 0.2 0
29.6 0.2 0
30 0.2 0
30.4 0.2 0
30.8 0.2 0
31.2 0.2 0
31.6 0.2 0
32 0.2 0
32.4 0.2 0
32.8 0.2 0
33.2 0.2 0
33.6 0.2 0
34 0.2 0
34.4 0.2 0
34.8 0.2 0
35.2 0.2 0
35.6 0.2 0
36 0.2 0
36.4 0.2 0
36.8 0.2 0
37.2 0.2 0
37.6 0.2 0
38 0.2 0
38.4 0.2 0
38.8 0.2 0
39.2 0.2 0
39.6 0.2 0
40 0.2 0
40.4 0.2 0
0 0.3 0
0.4 0.3 0
0.8 0.3 0
1.2 0.3 0
1.6 0.3 0
2 0.3 0
2.4 0.3 0
2.8 0.3 0
3.2 0.3 0
3.6 0.3 0
4 0.3 0
4.4 0.3 0
4.8 0.3 0
5.2 0.3 0
5.6 0.3 0
6 0.3 0
6.4 0.3 0
6.8 0.3 0
7.2 0.3 0
7.6 0.3 0
8 0.3 0
8.4 0.3 0
8.8 0.3 0
9.2 0.3 0
9.6 0.3 0
10 0.3 0
10.4 0.3 0
10.8 0.3 0
11.2 0.3 0
11.6 0.3 0
12 0.3 0
12.4 0.3 0
12.8 0.3 0
13.2 0.3 0
13.6 0.3 0
14 0.3 0
14.4 0.3 0
14.8 0.3 0
15.2 0.3 0
15.6 0.3 0
16 0.3 0
16.4 0.3 0
16.8 0.3 0
17.2 0.3 0
17.6 0.3 0
18 0.3 0
18.4 0.3 0
18.8 0.3 0
19.2 0.3 0
19.6 0.3 0
20 0.3 0
20.4 0.3 0
20.8 0.3 0
21.2 0.3 0
21.6 0.3 0
22 0.3 0
22.4 0.3 0
22.8 0.3 0
23.2 0.3 0
23.6 0.3 0
24 0.3 0
24.4 0.3 0
24.8 0.3 0
25.2 0.3 0
25.6 0.3 0
26 0.3 0
26.4 0.3 0
26.8 0.3 0
27.2 0.3 0
27.6 0.3 0
28 0.3 0
28.4 0.3 0
28.8 0.3 0
29.2 0.3 0
29.6 0.3 0
30 0.3 0
30.4 0.3 0
30.8 0.3 0
31.2 0.3 0
31.6 0.3 0
32 0.3 0
32.4 0.3 0
32.8 0.3 0
33.2 0.3 0
33.6 0.3 0
34 0.3 0
34.4 0.3 0
34.8 0.3 0
35.2 0.3 0
35.6 0.3 0
36 0.3 0
36.4 0.3 0
36.8 0.3 0
37.2 0.3 0
37.6 0.3 0
38 0.3 0
38.4 0.3 0
38.8 0.3 0
39.2 0.3 0
39.6 0.3 0
40 0.3 0
40.4 0.3 0
0 0.4 0
0.4 0.4 0
0.8 0.4 0
1.2 0.4 0
1.6 0.4 0
2 0.4 0
2.4 0.4 0
2.8 0.4 0
3.2 0.4 0
3.6 0.4 0
4 0.4 0
4.4 0.4 0
4.8 0.4 0
5.2 0.4 0
5.6 0.4 0
6 0.4 0
6.4 0.4 0
6.8 0.4 0
7.2 0.4 0
7.6 0.4 0
8 0.4 0
8.4 0.4 0
8.8 0.4 0
9.2 0.4 0
9.6 0.4 0
10 0.4 0
10.4 0.4 0
10.8 0.4 0
11.2 0.4 0
11.6 0.4 0
12 0.4 0
12.4 0.4 0
12.8 0.4 0
13.2 0.4 0
13.6 0.4 0
14 0.4 0
14.4 0.4 0
14.8 0.4 0
15.2 0.4 0
15.6 0.4 0
16 0.4 0
16.4 0.4 0
16.8 0.4 0
17.2 0.4 0
17.6 0.4 0
18 0.4 0
18.4 0.4 0
18.8 0.4 0
19.2 0.4 0
19.6 0.4 0
20 0.4 0
20.4 0.4 0
20.8 0.4 0
21.2 0.4 0
21.6 0.4 0
22 0.4 0
22.4 0.4 0
22.8 0.4 0
23.2 0.4 0
23.6 0.4 0
24 0.4 0
24.4 0.4 0
24.8 0.4 0
25.2 0.4 0
25.6 0.4 0
26 0.4 0
26.4 0.4 0
26.8 0.4 0
27.2 0.4 0
27.6 0.4 0
28 0.4 0
28.4 0.4 0
28.8 0.4 0
29.2 0.4 0
29.6 0.4 0
30 0.4 0
30.4 0.4 0
30.8 0.4 0
31.2 0.4 0
31.6 0.4 0
32 0.4 0
32.4 0.4 0
32.8 0.4 0
33.2 0.4 0
33.6 0.4 0
34 0.4 0
34.4 0.4 0
34.8 0.4 0
35.2 0.4 0
35.6 0.4 0
36 0.4 0
36.4 0.4 0
36.8 0.4 0
37.2 0.4 0
37.6 0.4 0
38 0.4 0
38.4 0.4 0
38.8 0.4 0
39.2 0.4 0
39.6 0.4 0
40 0.4 0
40.4 0.4 0
0 0.5 0
0.4 0.5 0
0.8 0.5 0
1.2 0.5 0
1.6 0.5 0
2 0.5 0
2.4 0.5 0
2.8 0.5 0
3.2 0.5 0
3.6 0.5 0
4 0.5 0
4.4 0.5 0
4.8 0.5 0
5.2 0.5 0
5.6 0.5 0
6 0.5 0
6.4 0.5 0
6.8 0.5 0
7.2 0.5 0
7.6 0.5 0
8 0.5 0
8.4 0.5 0
8.8 0.5 0
9.2 0.5 0
9.6 0.5 0
10 0.5 0
10.4 0.5 0
10.8 0.5 0
11.2 0.5 0
11.6 0.5 0
12 0.5 0
12.4 0.5 0
12.8 0.5 0
13.2 0.5 0
13.6 0.5 0
14 0.5 0
14.4 0.5 0
14.8 0.5 0
15.2 0.5 0
15.6 0.5 0
16 0.5 0
16.4 0.5 0
16.8 0.5 0
17.2 0.5 0
17.6 0.5 0
18 0.5 0
18.4 0.5 0
18.8 0.5 0
19.2 0.5 0
19.6 0.5 0
20 0.5 0
20.4 0.5 0
20.8 0.5 0
21.2 0.5 0
21.6 0.5 0
22 0.5 0
22.4 0.5 0
22.8 0.5 0
23.2 0.5 0
23.6 0.5 0
24 0.5 0
24.4 0.5 0
24.8 0.5 0
25.2 0.5 0
25.6 0.5 0
26 0.5 0
26.4 0.5 0
26.8 0.5 0
27.2 0.5 0
27.6 0.5 0
28 0.5 0
28.4 0.5 0
28.8 0.5 0
29.2 0.5 0
29.6 0.5 0
30 0.5 0
30.4 0.5 0
30.8 0.5 0
31.2 0.5 0
31.6 0.5 0
32 0.5 0
32.4 0.5 0
32.8 0.5 0
33.2 0.5 0
33.6 0.5 0
34 0.5 0
34.4 0.5 0
34.8 0.5 0
35.2 0.5 0
35.6 0.5 0
36 0.5 0
36.4 0.5 0
36.8 0.5 0
37.2 0.5 0
37.6 0.5 0
38 0.5 0
38.4 0.5 0
38.8 0.5 0
39.2 0.5 0
39.6 0.5 0
40 0.5 0
40.4 0.5 0
0 0.6 0
0.4 0.6 0
0.8 0.6 0
1.2 0.6 0
1.6 0.6 0
2 0.6 0
2.4 0.6 0
2.8 0.6 0
3.2 0.6 0
3.6 0.6 0
4 0.6 0
4.4 0.6 0
4.8 0.6 0
5.2 0.6 0
5.6 0.6 0
6 0.6 0
6.4 0.6 0
6.8 0.6 0
7.2 0.6 0
7.6 0.6 0
8 0.6 0
8.4 0.6 0
8.8 0.6 0
9.2 0.6 0
9.6 0.6 0
10 0.6 0
10.4 0.6 0
10.8 0.6 0
11.2 0.6 0
11.6 0.6 0
12 0.6 0
12.4 0.6 0
12.8 0.6 0
13.2 0.6 0
13.6 0.6 0
14 0.6 0
14.4 0.6 0
14.8 0.6 0
15.2 0.6 0
15.6 0.6 0
16 0.6 0
16.4 0.6 0
16.8 0.6 0
17.2 0.6 0
17.6 0.6 0
18 0.6 0
18.4 0.6 0
18.8 0.6 0
19.2 0.6 0
19.6 0.6 0
20 0.6 0
20.4 0.6 0
20.8 0.6 0
21.2 0.6 0
21.6 0.6 0
22 0.6 0
22.4 0.6 0
22.8 0.6 0
23.2 0.6 0
23.6 0.6 0
24 0.6 0
24.4 0.6 0
24.8 0.6 0
25.2 0.6 0
25.6 0.6 0
26 0.6 0
26.4 0.6 0
26.8 0.6 0
27.2 0.6 0
27.6 0.6 0
28 0.6 0
28.4 0.6 0
28.8 0.6 0
29.2 0.6 0
29.6 0.6 0
30 0.6 0
30.4 0.6 0
30.8 0.6 0
31.2 0.6 0
31.6 0.6 0
32 0.6 0
32.4 0.6 0
32.8 0.6 0
33.2 0.6 0
33.6 0.6 0
34 0.6 0
34.4 0.6 0
34.8 0.6 0
35.2 0.6 0
35.6 0.6 0
36 0.6 0
36.4 0.6 0
36.8 0.6 0
37.2 0.6 0
37.6 0.6 0
38 0.6 0
38.4 0.6 0
38.8 0.6 0
39.2 0.6 0
39.6 0.6 0
40 0.6 0
40.4 0.6 0
0 0.7 0
0.4 0.7 0
0.8 0.7 0
1.2 0.7 0
1.6 0.7 0
2 0.7 0
2.4 0.7 0
2.8 0.7 0
3.2 0.7 0
3.6 0.7 0
4 0.7 0
4.4 0.7 0
4.8 0.7 0
5.2 0.7 0
5.6 0.7 0
6 0.7 0
6.4 0.7 0
6.8 0.7 0
7.2 0.7 0
7.6 0.7 0
8 0.7 0
8.4 0.7 0
8.8 0.7 0
9.2 0.7 0
9.6 0.7 0
10 0.7 0
10.4 0.7 0
10.8 0.7 0
11.2 0.7 0
11.6 0.7 0
12 0.7 0
12.4 0.7 0
12.8 0.7 0
13.2 0.7 0
13.6 0.7 0
14 0.7 0
14.4 0.7 0
14.8 0.7 0
15.2 0.7 0
15.6 0.7 0
16 0.7 0
16.4 0.7 0
16.8 0.7 0
17.2 0.7 0
17.6 0.7 0
18 0.7 0
18.4 0.7 0
18.8 0.7 0
19.2 0.7 0
19.6 0.7 0
20 0.7 0
20.4 0.7 0
20.8 0.7 0
21.2 0.7 0
21.6 0.7 0
22 0.7 0
22.4 0.7 0
22.8 0.7 0
23.2 0.7 0
23.6 0.7 0
24 0.7 0
24.4 0.7 0
24.8 0.7 0
25.2 0.7 0
25.6 0.7 0
26 0.7 0
26.4 0.7 0
26.8 0.7 0
27.2 0.7 0
27.6 0.7 0
28 0.7 0
28.4 0.7 0
28.8 0.7 0
29.2 0.7 0
29.6 0.7 0
30 0.7 0
30.4 0.7 0
30.8 0.7 0
31.2 0.7 0
31.6 0.7 0
32 0.7 0
32.4 0.7 0
32.8 0.7 0
33.2 0.7 0
33.6 0.7 0
34 0.7 0
34.4 0.7 0
34.8 0.7 0
35.2 0.7 0
35.6 0.7 0
36 0.7 0
36.4 0.7 0
36.8 0.7 0
37.2 0.7 0
37.6 0.7 0
38 0.7 0
38.4 0.7 0
38.8 0.7 0
39.2 0.7 0
39.6 0.7 0
40 0.7 0
40.4 0.7 0
0 0.8 0
0.4 0.8 0
0.8 0.8 0
1.2 0.8 0
1.6 0.8 0
2 0.8 0
2.4 0.8 0
2.8 0.8 0
3.2 0.8 0
3.6 0.8 0
4 0.8 0
4.4 0.8 0
4.8 0.8 0
5.2 0.8 0
5.6 0.8 0
6 0.8 0
6.4 0.8 0
6.8 0.8 0
7.2 0.8 0
7.6 0.8 0
8 0.8 0
8.4 0.8 0
8.8 0.8 0
9.2 0.8 0
9.6 0.8 0
10 0.8 0
10.4 0.8 0
10.8 0.8 0
11.2 0.8 0
11.6 0.8 0
12 0.8 0
12.4 0.8 0
12.8 0.8 0
13.2 0.8 0
13.6 0.8 0
14 0.8 0
14.4 0.8 0
14.8 0.8 0
15.2 0.8 0
15.6 0.8 0
16 0.8 0
16.4 0.8 0
16.8 0.8 0
17.2 0.8 0
17.6 0.8 0
18 0.8 0
18.4 0.8 0
18.8 0.8 0
19.2 0.8 0
19.6 0.8 0
20 0.8 0
20.4 0.8 0
20.8 0.8 0
21.2 0.8 0
21.6 0.8 0
22 0.8 0
22.4 0.8 0
22.8 0.8 0
23.2 0.8 0
23.6 0.8 0
24 0.8 0
24.4 0.8 0
24.8 0.8 0
25.2 0.8 0
25.6 0.8 0
26 0.8 0
26.4 0.8 0
26.8 0.8 0
27.2 0.8 0
27.6 0.8 0
28 0.8 0
28.4 0.8 0
28.8 0.8 0
29.2 0.8 0
29.6 0.8 0
30 0.8 0
30.4 0.8 0
30.8 0.8 0
31.2 0.8 0
31.6 0.8 0
32 0.8 0
32.4 0.8 0
32.8 0.8 0
33.2 0.8 0
33.6 0.8 0
34 0.8 0
34.4 0.8 0
34.8 0.8 0
35.2 0.8 0
35.6 0.8 0
36 0.8 0
36.4 0.8 0
36.8 0.8 0
37.2 0.8 0
37.6 0.8 0
38 0.8 0
38.4 0.8 0
38.8 0.8 0
39.2 0.8 0
39.6 0.8 0
40 0.8 0
40.4 0.8 0
0 0.9 0
0.4 0.9 0
0.8 0.9 0
1.2 0.9 0
1.6 0.9 0
2 0.9 0
2.4 0.9 0
2.8 0.9 0
3.2 0.9 0
3.6 0.9 0
4 0.9 0
4.4 0.9 0
4.8 0.9 0
5.2 0.9 0
5.6 0.9 0
6 0.9 0
6.4 0.9 0
6.8 0.9 0
7.2 0.9 0
7.6 0.9 0
8 0.9 0
8.4 0.9 0
8.8 0.9 0
9.2 0.9 0
9.6 0.9 0
10 0.9 0
10.4 0.9 0
10.8 0.9 0
11.2 0.9 0
11.6 0.9 0
12 0.9 0
12.4 0.9 0
12.8 0.9 0
13.2 0.9 0
13.6 0.9 0
14 0.9 0
14.4 0.9 0
14.8 0.9 0
15.2 0.9 0
15.6 0.9 0
16 0.9 0
16.4 0.9 0
16.8 0.9 0
17.2 0.9 0
17.6 0.9 0
18 0.9 0
18.4 0.9 0
18.8 0.9 0
19.2 0.9 0
19.6 0.9 0
20 0.9 0
20.4 0.9 0
20.8 0.9 0
21.2 0.9 0
21.6 0.9 0
22 0.9 0
22.4 0.9 0
22.8 0.9 0
23.2 0.9 0
23.6 0.9 0
24 0.9 0
24.4 0.9 0
24.8 0.9 0
25.2 0.9 0
25.6 0.9 0
26 0.9 0
26.4 0.9 0
26.8 0.9 0
27.2 0.9 0
27.6 0.9 0
28 0.9 0
28.4 0.9 0
28.8 0.9 0
29.2 0.9 0
29.6 0.9 0
30 0.9 0
30.4 0.9 0
30.8 0.9 0
31.2 0.9 0
31.6 0.9 0
32 0.9 0
32.4 0.9 0
32.8 0.9 0
33.2 0.9 0
33.6 0.9 0
34 0.9 0
34.4 0.9 0
34.8 0.9 0
35.2 0.9 0
35.6 0.9 0
36 0.9 0
36.4 0.9 0
36.8 0.9 0
37.2 0.9 0
37.6 0.9 0
38 0.9 0
38.4 0.9 0
38.8 0.9 0
39.2 0.9 0
39.6 0.9 0
40 0.9 0
40.4 0.9 0
0 1 0
0.4 1 0
0.8 1 0
1.2 1 0
1.6 1 0
2 1 0
2.4 1 0
2.8 1 0
3.2 1 0
3.6 1 0
4 1 0
4.4 1 0
4.8 1 0
5.2 1 0
5.6 1 0
6 1 0
6.4 1 0
6.8 1 0
7.2 1 0
7.6 1 0
8 1 0
8.4 1 0
8.8 1 0
9.2 1 0
9.6 1 0
10 1 0
10.4 1 0
10.8 1 0
11.2 1 0
11.6 1 0
12 1 0
12.4 1 0
12.8 1 0
13.2 1 0
13.6 1 0
14 1 0
14.4 1 0
14.8 1 0
15.2 1 0
15.6 1 0
16 1 0
16.4 1 0
16.8 1 0
17.2 1 0
17.6 1 0
18 1 0
18.4 1 0
18.8 1 0
19.2 1 0
19.6 1 0
20 1 0
20.4 1 0
20.8 1 0
21.2 1 0
21.6 1 0
22 1 0
22.4 1 0
22.8 1 0
23.2 1 0
23.6 1 0
24 1 0
24.4 1 0
24.8 1 0
25.2 1 0
25.6 1 0
26 1 0
26.4 1 0
26.8 1 0
27.2 1 0
27.6 1 0
28 1 0
28.4 1 0
28.8 1 0
29.2 1 0
29.6 1 0
30 1 0
30.4 1 0
30.8 1 0
31.2 1 0
31.6 1 0
32 1 0
32.4 1 0
32.8 1 0
33.2 1 0
33.6 1 0
34 1 0
34.4 1 0
34.8 1 0
35.2 1 0
35.6 1 0
36 1 0
36.4 1 0
36.8 1 0
37.2 1 0
37.6 1 0
38 1 0
38.4 1 0
38.8 1 0
39.2 1 0
39.6 1 0
40 1 0
40.4 1 0
0 1.1 0
0.4 1.1 0
0.8 1.1 0
1.2 1.1 0
1.6 1.1 0
2 1.1 0
2.4 1.1 0
2.8 1.1 0
3.2 1.1 0
3.6 1.1 0
4 1.1 0
4.4 1.1 0
4.8 1.1 0
5.2 1.1 0
5.6 1.1 0
6 1.1 0
6.4 1.1 0
6.8 1.1 0
7.2 1.1 0
7.6 1.1 0
8 1.1 0
8.4 1.1 0
8.8 1.1 0
9.2 1.1 0
9.6 1.1 0
10 1.1 0
10.4 1.1 0
10.8 1.1 0
11.2 1.1 0
11.6 1.1 0
12 1.1 0
12.4 1.1 0
12.8 1.1 0
13.2 1.1 0
13.6 1.1 0
14 1.1 0
14.4 1.1 0
14.8 1.1 0
15.2 1.1 0
15.6 1.1 0
16 1.1 0
16.4 1.1 0
16.8 1.1 0
17.2 1.1 0
17.6 1.1 0
18 1.1 0
18.4 1.1 0
18.8 1.1 0
19.2 1.1 0
19.6 1.1 0
20 1.1 0
20.4 1.1 0
20.8 1.1 0
21.2 1.1 0
21.6 1.1 0
22 1.1 0
22.4 1.1 0
22.8 1.1 0
23.2 1.1 0
23.6 1.1 0
24 1.1 0
24.4 1.1 0
24.8 1.1 0
25.2 1.1 0
25.6 1.1 0
26 1.1 0
26.4 1.1 0
26.8 1.1 0
27.2 1.1 0
27.6 1.1 0
28 1.1 0
28.4 1.1 0
28.8 1.1 0
29.2 1.1 0
29.6 1.1 0
30 1.1 0
30.4 1.1 0
30.8 1.1 0
31.2 1.1 0
31.6 1.1 0
32 1.1 0
32.4 1.1 0
32.8 1.1 0
33.2 1.1 0
33.6 1.1 0
34 1.1 0
34.4 1.1 0
34.8 1.1 0
35.2 1.1 0
35.6 1.1 0
36 1.1 0
36.4 1.1 0
36.8 1.1 0
37.2 1.1 0
37.6 1.1 0
38 1.1 0
38.4 1.1 0
38.8 1.1 0
39.2 1.1 0
39.6 1.1 0
40 1.1 0
40.4 1.1 0

POINT_DATA 1224

SCALARS phi double
LOOKUP_TABLE default
0.999994
1.00001
0.999956
0.999559
0.9983
0.995702
0.991537
0.9858
0.978615
0.970169
0.960673
0.950341
0.939374
0.92795
0.916225
0.904331
0.892374
0.880445
0.868612
0.856933
0.845449
0.834193
0.82319
0.812458
0.802006
0.791843
0.78197
0.772384
0.763079
0.754043
0.74526
0.736707
0.728358
0.72018
0.712137
0.704189
0.69629
0.688396
0.680461
0.672439
0.664287
0.655965
0.647436
0.638668
0.629636
0.620318
0.610698
0.600769
0.590524
0.579964
0.569094
0.557923
0.54646
0.534722
0.522723
0.510481
0.498015
0.485343
0.472484
0.459458
0.446285
0.432981
0.419568
0.406062
0.392482
0.378846
0.365172
0.351479
0.337785
0.32411
0.310472
0.296893
0.283394
0.269995
0.256719
0.24359
0.23063
0.217864
0.205316
0.193009
0.180969
0.169218
0.15778
0.146679
0.135934
0.125566
0.115594
0.106036
0.0969059
0.0882171
0.0799805
0.0722045
0.064895
0.0580551
0.0516847
0.0457828
0.0403379
0.0353635
0.030765
0.0268464
0.022348
0.022348
0.999994
1.00001
0.999956
0.999559
0.9983
0.995702
0.991537
0.9858
0.978615
0.970169
0.960673
0.950341
0.939374
0.92795
0.916225
0.904331
0.892374
0.880445
0.868612
0.856933
0.845449
0.834193
0.82319
0.812458
0.802006
0.791843
0.78197
0.772384
0.763079
0.754043
0.74526
0.736707
0.728358
0.72018
0.712137
0.704189
0.69629
0.688396
0.680461
0.672439
0.664287
0.655965
0.647436
0.638668
0.629636
0.620318
0.610698
0.600769
0.590524
0.579964
0.569094
0.557923
0.54646
0.534722
0.522723
0.510481
0.498015
0.485343
0.472484
0.459458
0.446285
0.432981
0.419568
0.406062
0.392482
0.378846
0.365172
0.351479
0.337785
0.32411
0.310472
0.296893
0.283394
0.269995
0.256719
0.24359
0.23063
0.217864
0.205316
0.193009
0.180969
0.169218
0.15778
0.146679
0.135934
0.125566
0.115594
0.106036
0.0969059
0.0882171
0.0799805
0.0722045
0.064895
0.0580551
0.0516847
0.0457828
0.0403379
0.0353635
0.030765
0.0268464
0.022348
0.022348
0.99999
1.00001
0.999544
0.998171
0.995436
0.991089
0.985125
0.977696
0.969019
0.959326
0.94884
0.937759
0.92626
0.914491
0.902577
0.890621
0.878707
0.8669
0.855254
0.843809
0.832597
0.821639
0.810952
0.800548
0.790433
0.780611
0.771081
0.76184
0.752883
0.7442
0.73578
0.727606
0.719659
0.711915
0.704346
0.696921
0.689605
0.682361
0.675149
0.667929
0.660662
0.653307
0.645828
0.63819
0.630363
0.622318
0.614033
0.60549
0.596675
0.587578
0.578193
0.56852
0.558561
0.548319
0.537803
0.527022
0.515988
0.504712
0.493209
0.481492
0.469576
0.457476
0.445206
0.432781
0.420217
0.407528
0.394731
0.38184
0.368871
0.355841
0.342768
0.329668
0.31656
0.303465
0.290402
0.277392
0.264458
0.251622
0.238908
0.226341
0.213944
0.201743
0.189762
0.178027
0.166561
0.155389
0.144533
0.134014
0.123855
0.114072
0.104685
0.095708
0.0871554
0.0790387
0.0713665
0.0641483
0.0573783
0.051096
0.04516
0.040087
0.0339308
0.0339308
1.00047
0.999533
0.995342
0.988481
0.979264
0.968242
0.956033
0.943149
0.929951
0.916682
0.903497
0.890497
0.877746
0.865283
0.853133
0.841311
0.829823
0.818673
0.80786
0.79738
0.787231
0.777405
0.767897
0.7587
0.749806
0.741207
0.732895
0.724861
0.717097
0.709592
0.702335
0.695315
0.688517
0.681924
0.67552
0.669282
0.663188
0.657211
0.651324
0.645498
0.6397
0.6339
0.628065
0.622163
0.616164
0.61004
0.603763
0.597309
0.590655
0.583785
0.576681
0.569331
0.561725
0.553857
0.545721
0.537316
0.52864
0.519697
0.510489
0.50102
0.491295
0.481322
0.471107
0.460657
0.449982
0.43909
0.42799
0.416693
0.405209
0.39355
0.381728
0.369758
0.357653
0.345429
0.333104
0.320696
0.308224
0.29571
0.283175
0.270644
0.25814
0.24569
0.233319
0.221056
0.208926
0.196958
0.18518
0.173618
0.1623
0.151251
0.140498
0.130064
0.119972
0.110245
0.100903
0.0919676
0.0834399
0.0753982
0.0676273
0.0609537
0.0524824
0.0524824
1.00913
0.990874
0.963593
0.936344
0.910574
0.88679
0.865195
0.845729
0.828186
0.812315
0.797874
0.784649
0.77246
0.761157
0.750619
0.740743
0.731448
0.722666
0.714341
0.706426
0.698883
0.691679
0.684787
0.678184
0.671849
0.665765
0.659918
0.654293
0.648879
0.643664
0.638639
0.633793
0.629115
0.624595
0.620222
0.615982
0.611863
0.607849
0.603923
0.600068
0.596262
0.592485
0.588714
0.584927
0.581099
0.577206
0.573225
0.569132
0.564905
0.560521
0.555962
0.551206
0.546239
0.541043
0.535604
0.529911
0.523951
0.517716
0.511198
0.504391
0.497288
0.489886
0.482181
0.474173
0.46586
0.457243
0.448323
0.439103
0.429588
0.419782
0.409692
0.399327
0.388697
0.377813
0.36669
0.355341
0.343786
0.332042
0.320132
0.308077
0.295903
0.283635
0.271302
0.258932
0.246556
0.234204
0.221909
0.209702
0.197616
0.185683
0.173935
0.162404
0.15112
0.140115
0.129417
0.119061
0.109051
0.0995019
0.0901258
0.0820398
0.0714775
0.0714775
1.10476
0.895237
0.791779
0.734418
0.698349
0.673559
0.65547
0.641661
0.630713
0.621752
0.614215
0.607733
0.602055
0.597005
0.592456
0.588315
0.584512
0.580993
0.577715
0.574645
0.571757
0.569029
0.566443
0.563985
0.561643
0.559406
0.557266
0.555217
0.553251
0.551363
0.549548
0.547801
0.546119
0.544496
0.542928
0.54141
0.539936
0.5385
0.537093
0.535707
0.534333
0.532958
0.531571
0.530158
0.528703
0.527191
0.525604
0.523924
0.522132
0.52021
0.518137
0.515895
0.513463
0.510821
0.507952
0.504835
0.501454
0.49779
0.493828
0.489552
0.484947
0.48
0.4747
0.469036
0.462999
0.456581
0.449777
0.442582
0.434995
0.427017
0.418648
0.409895
0.400763
0.391262
0.381404
0.371204
0.360676
0.349842
0.338722
0.327341
0.315724
0.3039
0.2919
0.279753
0.267495
0.25516
0.242783
0.230401
0.218049
0.205766
0.193588
0.181551
0.169692
0.158049
0.146653
0.13555
0.124742
0.11437
0.104099
0.0952209
0.0834573
0.0834573
-0.104763
0.104763
0.208221
0.265582
0.301651
0.326441
0.34453
0.358339
0.369287
0.378248
0.385785
0.392267
0.397945
0.402995
0.407544
0.411685
0.415488
0.419007
0.422285
0.425355
0.428243
0.430971
0.433557
0.436015
0.438357
0.440594
0.442734
0.444783
0.446749
0.448637
0.45045
0.452195
0.453873
0.455487
0.457041
0.458535
0.459972
0.46135
0.46267
0.463931
0.465129
0.46626
0.467321
0.468303
0.469199
0.469999
0.470691
0.471264
0.471701
0.471987
0.472106
0.472037
0.471761
0.471257
0.470505
0.469481
0.468165
0.466534
0.464566
0.462241
0.459539
0.45644
0.452927
0.448985
0.444599
0.439759
0.434454
0.428679
0.422429
0.415704
0.408504
0.400836
0.392707
0.384129
0.375114
0.36568
0.355848
0.34564
0.335082
0.324201
0.313029
0.301597
0.28994
0.278095
0.266099
0.253989
0.241807
0.22959
0.21738
0.205216
0.193138
0.181186
0.169397
0.157812
0.146464
0.135399
0.124623
0.114276
0.104026
0.0951636
0.0834155
0.0834155
-0.00912621
0.00912621
0.036407
0.0636558
0.0894265
0.11321
0.134805
0.154271
0.171814
0.187685
0.202126
0.215351
0.22754
0.238843
0.249381
0.259257
0.268552
0.277334
0.285659
0.293574
0.301117
0.308321
0.315213
0.321816
0.328151
0.334235
0.340082
0.345707
0.35112
0.356333
0.361354
0.366194
0.370858
0.375355
0.379691
0.383872
0.387902
0.391786
0.395527
0.399128
0.402589
0.40591
0.409089
0.412123
0.415007
0.417732
0.420291
0.42267
0.424857
0.426836
0.428589
0.430097
0.431338
0.432289
0.432929
0.433231
0.433172
0.432727
0.431872
0.430584
0.428842
0.426625
0.423916
0.420699
0.416962
0.412696
0.407893
0.402552
0.396672
0.390259
0.383319
0.375865
0.367911
0.359476
0.350582
0.341253
0.331518
0.321407
0.310953
0.300192
0.289159
0.277895
0.266439
0.254832
0.243116
0.231332
0.219523
0.20773
0.195995
0.184357
0.172856
0.16153
0.150417
0.139552
0.128969
0.118706
0.108772
0.0992833
0.089956
0.0819072
0.0713811
0.0713811
-0.000467025
0.000467025
0.00465755
0.0115186
0.0207356
0.0317579
0.0439669
0.0568514
0.0700488
0.083318
0.0965028
0.109503
0.122254
0.134717
0.146867
0.158689
0.170177
0.181327
0.19214
0.20262
0.212769
0.222595
0.232103
0.2413
0.250194
0.258793
0.267105
0.275137
0.282898
0.290396
0.297639
0.304635
0.311391
0.317914
0.324212
0.33029
0.336155
0.34181
0.34726
0.352506
0.35755
0.362391
0.367025
0.371448
0.375653
0.379629
0.383365
0.386846
0.390055
0.392972
0.395576
0.397845
0.399753
0.401274
0.402384
0.403056
0.403265
0.402986
0.402196
0.400875
0.399004
0.396569
0.393557
0.38996
0.385774
0.380998
0.375636
0.369696
0.363191
0.356135
0.348549
0.340458
0.331887
0.322869
0.313435
0.303623
0.29347
0.283016
0.272304
0.261376
0.250276
0.239048
0.227737
0.216386
0.205039
0.193739
0.182526
0.171442
0.160525
0.149811
0.139335
0.12913
0.119227
0.109653
0.100435
0.0916006
0.0831534
0.0751758
0.0674561
0.060821
0.0523868
0.0523868
9.54834e-06
-9.54834e-06
0.000456061
0.00182854
0.00456363
0.00891112
0.0148752
0.0223044
0.0309812
0.0406736
0.0511603
0.0622408
0.0737403
0.0855094
0.0974232
0.109379
0.121293
0.1331
0.144746
0.156191
0.167403
0.178361
0.189048
0.199452
0.209567
0.219388
0.228917
0.238152
0.247098
0.255759
0.264139
0.272244
0.28008
0.287652
0.294966
0.302027
0.308838
0.315402
0.321721
0.327794
0.333619
0.33919
0.3445
0.349539
0.354295
0.358751
0.362889
0.366689
0.370127
0.373178
0.375815
0.378012
0.37974
0.380972
0.381681
0.381842
0.381431
0.380429
0.378818
0.376584
0.373718
0.370214
0.366072
0.361296
0.355895
0.349882
0.343275
0.336098
0.328377
0.320143
0.31143
0.302276
0.292721
0.282808
0.272582
0.262088
0.251374
0.240487
0.229476
0.218388
0.20727
0.196169
0.18513
0.174196
0.163408
0.152807
0.14243
0.13231
0.12248
0.11297
0.103806
0.0950107
0.0866052
0.0786071
0.0710297
0.0638871
0.0571769
0.0509416
0.0450425
0.0399972
0.0338669
0.0338669
5.82414e-06
-5.82414e-06
4.36942e-05
0.000440584
0.00170024
0.00429825
0.00846288
0.0141997
0.0213849
0.0298313
0.039327
0.0496587
0.0606261
0.0720499
0.0837747
0.0956693
0.107626
0.119555
0.131388
0.143067
0.154551
0.165807
0.17681
0.187542
0.197993
0.208154
0.218022
0.227596
0.236875
0.245864
0.254565
0.262984
0.271123
0.278989
0.286584
0.293913
0.300976
0.307774
0.314306
0.320566
0.326549
0.332244
0.33764
0.342719
0.347465
0.351855
0.355866
0.359471
0.362642
0.365351
0.367567
0.369261
0.370405
0.37097
0.370933
0.37027
0.368963
0.366998
0.364365
0.361058
0.357076
0.352426
0.347117
0.341164
0.334589
0.327416
0.319676
0.311404
0.302636
0.293416
0.283786
0.273795
0.26349
0.252922
0.242141
0.2312
0.220149
0.209039
0.197921
0.186843
0.175852
0.164993
0.154309
0.143841
0.133626
0.123699
0.114092
0.104833
0.0959482
0.0874587
0.0793833
0.0717369
0.0645309
0.0577732
0.0514678
0.0456167
0.0402116
0.035268
0.0306933
0.0267924
0.02231
0.02231
5.82414e-06
-5.82414e-06
4.36942e-05
0.000440584
0.00170024
0.00429825
0.00846288
0.0141997
0.0213849
0.0298313
0.039327
0.0496587
0.0606261
0.0720499
0.0837747
0.0956693
0.107626
0.119555
0.131388
0.143067
0.154551
0.165807
0.17681
0.187542
0.197993
0.208154
0.218022
0.227596
0.236875
0.245864
0.254565
0.262984
0.271123
0.278989
0.286584
0.293913
0.300976
0.307774
0.314306
0.320566
0.326549
0.332244
0.33764
0.342719
0.347465
0.351855
0.355866
0.359471
0.362642
0.365351
0.367567
0.369261
0.370405
0.37097
0.370933
0.37027
0.368963
0.366998
0.364365
0.361058
0.357076
0.352426
0.347117
0.341164
0.334589
0.327416
0.319676
0.311404
0.302636
0.293416
0.283786
0.273795
0.26349
0.252922
0.242141
0.2312
0.220149
0.209039
0.197921
0.186843
0.175852
0.164993
0.154309
0.143841
0.133626
0.123699
0.114092
0.104833
0.0959482
0.0874587
0.0793833
0.0717369
0.0645309
0.0577732
0.0514678
0.0456167
0.0402116
0.035268
0.0306933
0.0267924
0.02231
0.02231
