# vtk DataFile Version 2.0
FlowField
ASCII
DATASET STRUCTURED_GRID
DIMENSIONS 101 11 1 
POINTS 1111 double
0 0 0
0.3 0 0
0.6 0 0
0.9 0 0
1.2 0 0
1.5 0 0
1.8 0 0
2.1 0 0
2.4 0 0
2.7 0 0
3 0 0
3.3 0 0
3.6 0 0
3.9 0 0
4.2 0 0
4.5 0 0
4.8 0 0
5.1 0 0
5.4 0 0
5.7 0 0
6 0 0
6.3 0 0
6.6 0 0
6.9 0 0
7.2 0 0
7.5 0 0
7.8 0 0
8.1 0 0
8.4 0 0
8.7 0 0
9 0 0
9.3 0 0
9.6 0 0
9.9 0 0
10.2 0 0
10.5 0 0
10.8 0 0
11.1 0 0
11.4 0 0
11.7 0 0
12 0 0
12.3 0 0
12.6 0 0
12.9 0 0
13.2 0 0
13.5 0 0
13.8 0 0
14.1 0 0
14.4 0 0
14.7 0 0
15 0 0
15.3 0 0
15.6 0 0
15.9 0 0
16.2 0 0
16.5 0 0
16.8 0 0
17.1 0 0
17.4 0 0
17.7 0 0
18 0 0
18.3 0 0
18.6 0 0
18.9 0 0
19.2 0 0
19.5 0 0
19.8 0 0
20.1 0 0
20.4 0 0
20.7 0 0
21 0 0
21.3 0 0
21.6 0 0
21.9 0 0
22.2 0 0
22.5 0 0
22.8 0 0
23.1 0 0
23.4 0 0
23.7 0 0
24 0 0
24.3 0 0
24.6 0 0
24.9 0 0
25.2 0 0
25.5 0 0
25.8 0 0
26.1 0 0
26.4 0 0
26.7 0 0
27 0 0
27.3 0 0
27.6 0 0
27.9 0 0
28.2 0 0
28.5 0 0
28.8 0 0
29.1 0 0
29.4 0 0
29.7 0 0
30 0 0
0 0.1 0
0.3 0.1 0
0.6 0.1 0
0.9 0.1 0
1.2 0.1 0
1.5 0.1 0
1.8 0.1 0
2.1 0.1 0
2.4 0.1 0
2.7 0.1 0
3 0.1 0
3.3 0.1 0
3.6 0.1 0
3.9 0.1 0
4.2 0.1 0
4.5 0.1 0
4.8 0.1 0
5.1 0.1 0
5.4 0.1 0
5.7 0.1 0
6 0.1 0
6.3 0.1 0
6.6 0.1 0
6.9 0.1 0
7.2 0.1 0
7.5 0.1 0
7.8 0.1 0
8.1 0.1 0
8.4 0.1 0
8.7 0.1 0
9 0.1 0
9.3 0.1 0
9.6 0.1 0
9.9 0.1 0
10.2 0.1 0
10.5 0.1 0
10.8 0.1 0
11.1 0.1 0
11.4 0.1 0
11.7 0.1 0
12 0.1 0
12.3 0.1 0
12.6 0.1 0
12.9 0.1 0
13.2 0.1 0
13.5 0.1 0
13.8 0.1 0
14.1 0.1 0
14.4 0.1 0
14.7 0.1 0
15 0.1 0
15.3 0.1 0
15.6 0.1 0
15.9 0.1 0
16.2 0.1 0
16.5 0.1 0
16.8 0.1 0
17.1 0.1 0
17.4 0.1 0
17.7 0.1 0
18 0.1 0
18.3 0.1 0
18.6 0.1 0
18.9 0.1 0
19.2 0.1 0
19.5 0.1 0
19.8 0.1 0
20.1 0.1 0
20.4 0.1 0
20.7 0.1 0
21 0.1 0
21.3 0.1 0
21.6 0.1 0
21.9 0.1 0
22.2 0.1 0
22.5 0.1 0
22.8 0.1 0
23.1 0.1 0
23.4 0.1 0
23.7 0.1 0
24 0.1 0
24.3 0.1 0
24.6 0.1 0
24.9 0.1 0
25.2 0.1 0
25.5 0.1 0
25.8 0.1 0
26.1 0.1 0
26.4 0.1 0
26.7 0.1 0
27 0.1 0
27.3 0.1 0
27.6 0.1 0
27.9 0.1 0
28.2 0.1 0
28.5 0.1 0
28.8 0.1 0
29.1 0.1 0
29.4 0.1 0
29.7 0.1 0
30 0.1 0
0 0.2 0
0.3 0.2 0
0.6 0.2 0
0.9 0.2 0
1.2 0.2 0
1.5 0.2 0
1.8 0.2 0
2.1 0.2 0
2.4 0.2 0
2.7 0.2 0
3 0.2 0
3.3 0.2 0
3.6 0.2 0
3.9 0.2 0
4.2 0.2 0
4.5 0.2 0
4.8 0.2 0
5.1 0.2 0
5.4 0.2 0
5.7 0.2 0
6 0.2 0
6.3 0.2 0
6.6 0.2 0
6.9 0.2 0
7.2 0.2 0
7.5 0.2 0
7.8 0.2 0
8.1 0.2 0
8.4 0.2 0
8.7 0.2 0
9 0.2 0
9.3 0.2 0
9.6 0.2 0
9.9 0.2 0
10.2 0.2 0
10.5 0.2 0
10.8 0.2 0
11.1 0.2 0
11.4 0.2 0
11.7 0.2 0
12 0.2 0
12.3 0.2 0
12.6 0.2 0
12.9 0.2 0
13.2 0.2 0
13.5 0.2 0
13.8 0.2 0
14.1 0.2 0
14.4 0.2 0
14.7 0.2 0
15 0.2 0
15.3 0.2 0
15.6 0.2 0
15.9 0.2 0
16.2 0.2 0
16.5 0.2 0
16.8 0.2 0
17.1 0.2 0
17.4 0.2 0
17.7 0.2 0
18 0.2 0
18.3 0.2 0
18.6 0.2 0
18.9 0.2 0
19.2 0.2 0
19.5 0.2 0
19.8 0.2 0
20.1 0.2 0
20.4 0.2 0
20.7 0.2 0
21 0.2 0
21.3 0.2 0
21.6 0.2 0
21.9 0.2 0
22.2 0.2 0
22.5 0.2 0
22.8 0.2 0
23.1 0.2 0
23.4 0.2 0
23.7 0.2 0
24 0.2 0
24.3 0.2 0
24.6 0.2 0
24.9 0.2 0
25.2 0.2 0
25.5 0.2 0
25.8 0.2 0
26.1 0.2 0
26.4 0.2 0
26.7 0.2 0
27 0.2 0
27.3 0.2 0
27.6 0.2 0
27.9 0.2 0
28.2 0.2 0
28.5 0.2 0
28.8 0.2 0
29.1 0.2 0
29.4 0.2 0
29.7 0.2 0
30 0.2 0
0 0.3 0
0.3 0.3 0
0.6 0.3 0
0.9 0.3 0
1.2 0.3 0
1.5 0.3 0
1.8 0.3 0
2.1 0.3 0
2.4 0.3 0
2.7 0.3 0
3 0.3 0
3.3 0.3 0
3.6 0.3 0
3.9 0.3 0
4.2 0.3 0
4.5 0.3 0
4.8 0.3 0
5.1 0.3 0
5.4 0.3 0
5.7 0.3 0
6 0.3 0
6.3 0.3 0
6.6 0.3 0
6.9 0.3 0
7.2 0.3 0
7.5 0.3 0
7.8 0.3 0
8.1 0.3 0
8.4 0.3 0
8.7 0.3 0
9 0.3 0
9.3 0.3 0
9.6 0.3 0
9.9 0.3 0
10.2 0.3 0
10.5 0.3 0
10.8 0.3 0
11.1 0.3 0
11.4 0.3 0
11.7 0.3 0
12 0.3 0
12.3 0.3 0
12.6 0.3 0
12.9 0.3 0
13.2 0.3 0
13.5 0.3 0
13.8 0.3 0
14.1 0.3 0
14.4 0.3 0
14.7 0.3 0
15 0.3 0
15.3 0.3 0
15.6 0.3 0
15.9 0.3 0
16.2 0.3 0
16.5 0.3 0
16.8 0.3 0
17.1 0.3 0
17.4 0.3 0
17.7 0.3 0
18 0.3 0
18.3 0.3 0
18.6 0.3 0
18.9 0.3 0
19.2 0.3 0
19.5 0.3 0
19.8 0.3 0
20.1 0.3 0
20.4 0.3 0
20.7 0.3 0
21 0.3 0
21.3 0.3 0
21.6 0.3 0
21.9 0.3 0
22.2 0.3 0
22.5 0.3 0
22.8 0.3 0
23.1 0.3 0
23.4 0.3 0
23.7 0.3 0
24 0.3 0
24.3 0.3 0
24.6 0.3 0
24.9 0.3 0
25.2 0.3 0
25.5 0.3 0
25.8 0.3 0
26.1 0.3 0
26.4 0.3 0
26.7 0.3 0
27 0.3 0
27.3 0.3 0
27.6 0.3 0
27.9 0.3 0
28.2 0.3 0
28.5 0.3 0
28.8 0.3 0
29.1 0.3 0
29.4 0.3 0
29.7 0.3 0
30 0.3 0
0 0.4 0
0.3 0.4 0
0.6 0.4 0
0.9 0.4 0
1.2 0.4 0
1.5 0.4 0
1.8 0.4 0
2.1 0.4 0
2.4 0.4 0
2.7 0.4 0
3 0.4 0
3.3 0.4 0
3.6 0.4 0
3.9 0.4 0
4.2 0.4 0
4.5 0.4 0
4.8 0.4 0
5.1 0.4 0
5.4 0.4 0
5.7 0.4 0
6 0.4 0
6.3 0.4 0
6.6 0.4 0
6.9 0.4 0
7.2 0.4 0
7.5 0.4 0
7.8 0.4 0
8.1 0.4 0
8.4 0.4 0
8.7 0.4 0
9 0.4 0
9.3 0.4 0
9.6 0.4 0
9.9 0.4 0
10.2 0.4 0
10.5 0.4 0
10.8 0.4 0
11.1 0.4 0
11.4 0.4 0
11.7 0.4 0
12 0.4 0
12.3 0.4 0
12.6 0.4 0
12.9 0.4 0
13.2 0.4 0
13.5 0.4 0
13.8 0.4 0
14.1 0.4 0
14.4 0.4 0
14.7 0.4 0
15 0.4 0
15.3 0.4 0
15.6 0.4 0
15.9 0.4 0
16.2 0.4 0
16.5 0.4 0
16.8 0.4 0
17.1 0.4 0
17.4 0.4 0
17.7 0.4 0
18 0.4 0
18.3 0.4 0
18.6 0.4 0
18.9 0.4 0
19.2 0.4 0
19.5 0.4 0
19.8 0.4 0
20.1 0.4 0
20.4 0.4 0
20.7 0.4 0
21 0.4 0
21.3 0.4 0
21.6 0.4 0
21.9 0.4 0
22.2 0.4 0
22.5 0.4 0
22.8 0.4 0
23.1 0.4 0
23.4 0.4 0
23.7 0.4 0
24 0.4 0
24.3 0.4 0
24.6 0.4 0
24.9 0.4 0
25.2 0.4 0
25.5 0.4 0
25.8 0.4 0
26.1 0.4 0
26.4 0.4 0
26.7 0.4 0
27 0.4 0
27.3 0.4 0
27.6 0.4 0
27.9 0.4 0
28.2 0.4 0
28.5 0.4 0
28.8 0.4 0
29.1 0.4 0
29.4 0.4 0
29.7 0.4 0
30 0.4 0
0 0.5 0
0.3 0.5 0
0.6 0.5 0
0.9 0.5 0
1.2 0.5 0
1.5 0.5 0
1.8 0.5 0
2.1 0.5 0
2.4 0.5 0
2.7 0.5 0
3 0.5 0
3.3 0.5 0
3.6 0.5 0
3.9 0.5 0
4.2 0.5 0
4.5 0.5 0
4.8 0.5 0
5.1 0.5 0
5.4 0.5 0
5.7 0.5 0
6 0.5 0
6.3 0.5 0
6.6 0.5 0
6.9 0.5 0
7.2 0.5 0
7.5 0.5 0
7.8 0.5 0
8.1 0.5 0
8.4 0.5 0
8.7 0.5 0
9 0.5 0
9.3 0.5 0
9.6 0.5 0
9.9 0.5 0
10.2 0.5 0
10.5 0.5 0
10.8 0.5 0
11.1 0.5 0
11.4 0.5 0
11.7 0.5 0
12 0.5 0
12.3 0.5 0
12.6 0.5 0
12.9 0.5 0
13.2 0.5 0
13.5 0.5 0
13.8 0.5 0
14.1 0.5 0
14.4 0.5 0
14.7 0.5 0
15 0.5 0
15.3 0.5 0
15.6 0.5 0
15.9 0.5 0
16.2 0.5 0
16.5 0.5 0
16.8 0.5 0
17.1 0.5 0
17.4 0.5 0
17.7 0.5 0
18 0.5 0
18.3 0.5 0
18.6 0.5 0
18.9 0.5 0
19.2 0.5 0
19.5 0.5 0
19.8 0.5 0
20.1 0.5 0
20.4 0.5 0
20.7 0.5 0
21 0.5 0
21.3 0.5 0
21.6 0.5 0
21.9 0.5 0
22.2 0.5 0
22.5 0.5 0
22.8 0.5 0
23.1 0.5 0
23.4 0.5 0
23.7 0.5 0
24 0.5 0
24.3 0.5 0
24.6 0.5 0
24.9 0.5 0
25.2 0.5 0
25.5 0.5 0
25.8 0.5 0
26.1 0.5 0
26.4 0.5 0
26.7 0.5 0
27 0.5 0
27.3 0.5 0
27.6 0.5 0
27.9 0.5 0
28.2 0.5 0
28.5 0.5 0
28.8 0.5 0
29.1 0.5 0
29.4 0.5 0
29.7 0.5 0
30 0.5 0
0 0.6 0
0.3 0.6 0
0.6 0.6 0
0.9 0.6 0
1.2 0.6 0
1.5 0.6 0
1.8 0.6 0
2.1 0.6 0
2.4 0.6 0
2.7 0.6 0
3 0.6 0
3.3 0.6 0
3.6 0.6 0
3.9 0.6 0
4.2 0.6 0
4.5 0.6 0
4.8 0.6 0
5.1 0.6 0
5.4 0.6 0
5.7 0.6 0
6 0.6 0
6.3 0.6 0
6.6 0.6 0
6.9 0.6 0
7.2 0.6 0
7.5 0.6 0
7.8 0.6 0
8.1 0.6 0
8.4 0.6 0
8.7 0.6 0
9 0.6 0
9.3 0.6 0
9.6 0.6 0
9.9 0.6 0
10.2 0.6 0
10.5 0.6 0
10.8 0.6 0
11.1 0.6 0
11.4 0.6 0
11.7 0.6 0
12 0.6 0
12.3 0.6 0
12.6 0.6 0
12.9 0.6 0
13.2 0.6 0
13.5 0.6 0
13.8 0.6 0
14.1 0.6 0
14.4 0.6 0
14.7 0.6 0
15 0.6 0
15.3 0.6 0
15.6 0.6 0
15.9 0.6 0
16.2 0.6 0
16.5 0.6 0
16.8 0.6 0
17.1 0.6 0
17.4 0.6 0
17.7 0.6 0
18 0.6 0
18.3 0.6 0
18.6 0.6 0
18.9 0.6 0
19.2 0.6 0
19.5 0.6 0
19.8 0.6 0
20.1 0.6 0
20.4 0.6 0
20.7 0.6 0
21 0.6 0
21.3 0.6 0
21.6 0.6 0
21.9 0.6 0
22.2 0.6 0
22.5 0.6 0
22.8 0.6 0
23.1 0.6 0
23.4 0.6 0
23.7 0.6 0
24 0.6 0
24.3 0.6 0
24.6 0.6 0
24.9 0.6 0
25.2 0.6 0
25.5 0.6 0
25.8 0.6 0
26.1 0.6 0
26.4 0.6 0
26.7 0.6 0
27 0.6 0
27.3 0.6 0
27.6 0.6 0
27.9 0.6 0
28.2 0.6 0
28.5 0.6 0
28.8 0.6 0
29.1 0.6 0
29.4 0.6 0
29.7 0.6 0
30 0.6 0
0 0.7 0
0.3 0.7 0
0.6 0.7 0
0.9 0.7 0
1.2 0.7 0
1.5 0.7 0
1.8 0.7 0
2.1 0.7 0
2.4 0.7 0
2.7 0.7 0
3 0.7 0
3.3 0.7 0
3.6 0.7 0
3.9 0.7 0
4.2 0.7 0
4.5 0.7 0
4.8 0.7 0
5.1 0.7 0
5.4 0.7 0
5.7 0.7 0
6 0.7 0
6.3 0.7 0
6.6 0.7 0
6.9 0.7 0
7.2 0.7 0
7.5 0.7 0
7.8 0.7 0
8.1 0.7 0
8.4 0.7 0
8.7 0.7 0
9 0.7 0
9.3 0.7 0
9.6 0.7 0
9.9 0.7 0
10.2 0.7 0
10.5 0.7 0
10.8 0.7 0
11.1 0.7 0
11.4 0.7 0
11.7 0.7 0
12 0.7 0
12.3 0.7 0
12.6 0.7 0
12.9 0.7 0
13.2 0.7 0
13.5 0.7 0
13.8 0.7 0
14.1 0.7 0
14.4 0.7 0
14.7 0.7 0
15 0.7 0
15.3 0.7 0
15.6 0.7 0
15.9 0.7 0
16.2 0.7 0
16.5 0.7 0
16.8 0.7 0
17.1 0.7 0
17.4 0.7 0
17.7 0.7 0
18 0.7 0
18.3 0.7 0
18.6 0.7 0
18.9 0.7 0
19.2 0.7 0
19.5 0.7 0
19.8 0.7 0
20.1 0.7 0
20.4 0.7 0
20.7 0.7 0
21 0.7 0
21.3 0.7 0
21.6 0.7 0
21.9 0.7 0
22.2 0.7 0
22.5 0.7 0
22.8 0.7 0
23.1 0.7 0
23.4 0.7 0
23.7 0.7 0
24 0.7 0
24.3 0.7 0
24.6 0.7 0
24.9 0.7 0
25.2 0.7 0
25.5 0.7 0
25.8 0.7 0
26.1 0.7 0
26.4 0.7 0
26.7 0.7 0
27 0.7 0
27.3 0.7 0
27.6 0.7 0
27.9 0.7 0
28.2 0.7 0
28.5 0.7 0
28.8 0.7 0
29.1 0.7 0
29.4 0.7 0
29.7 0.7 0
30 0.7 0
0 0.8 0
0.3 0.8 0
0.6 0.8 0
0.9 0.8 0
1.2 0.8 0
1.5 0.8 0
1.8 0.8 0
2.1 0.8 0
2.4 0.8 0
2.7 0.8 0
3 0.8 0
3.3 0.8 0
3.6 0.8 0
3.9 0.8 0
4.2 0.8 0
4.5 0.8 0
4.8 0.8 0
5.1 0.8 0
5.4 0.8 0
5.7 0.8 0
6 0.8 0
6.3 0.8 0
6.6 0.8 0
6.9 0.8 0
7.2 0.8 0
7.5 0.8 0
7.8 0.8 0
8.1 0.8 0
8.4 0.8 0
8.7 0.8 0
9 0.8 0
9.3 0.8 0
9.6 0.8 0
9.9 0.8 0
10.2 0.8 0
10.5 0.8 0
10.8 0.8 0
11.1 0.8 0
11.4 0.8 0
11.7 0.8 0
12 0.8 0
12.3 0.8 0
12.6 0.8 0
12.9 0.8 0
13.2 0.8 0
13.5 0.8 0
13.8 0.8 0
14.1 0.8 0
14.4 0.8 0
14.7 0.8 0
15 0.8 0
15.3 0.8 0
15.6 0.8 0
15.9 0.8 0
16.2 0.8 0
16.5 0.8 0
16.8 0.8 0
17.1 0.8 0
17.4 0.8 0
17.7 0.8 0
18 0.8 0
18.3 0.8 0
18.6 0.8 0
18.9 0.8 0
19.2 0.8 0
19.5 0.8 0
19.8 0.8 0
20.1 0.8 0
20.4 0.8 0
20.7 0.8 0
21 0.8 0
21.3 0.8 0
21.6 0.8 0
21.9 0.8 0
22.2 0.8 0
22.5 0.8 0
22.8 0.8 0
23.1 0.8 0
23.4 0.8 0
23.7 0.8 0
24 0.8 0
24.3 0.8 0
24.6 0.8 0
24.9 0.8 0
25.2 0.8 0
25.5 0.8 0
25.8 0.8 0
26.1 0.8 0
26.4 0.8 0
26.7 0.8 0
27 0.8 0
27.3 0.8 0
27.6 0.8 0
27.9 0.8 0
28.2 0.8 0
28.5 0.8 0
28.8 0.8 0
29.1 0.8 0
29.4 0.8 0
29.7 0.8 0
30 0.8 0
0 0.9 0
0.3 0.9 0
0.6 0.9 0
0.9 0.9 0
1.2 0.9 0
1.5 0.9 0
1.8 0.9 0
2.1 0.9 0
2.4 0.9 0
2.7 0.9 0
3 0.9 0
3.3 0.9 0
3.6 0.9 0
3.9 0.9 0
4.2 0.9 0
4.5 0.9 0
4.8 0.9 0
5.1 0.9 0
5.4 0.9 0
5.7 0.9 0
6 0.9 0
6.3 0.9 0
6.6 0.9 0
6.9 0.9 0
7.2 0.9 0
7.5 0.9 0
7.8 0.9 0
8.1 0.9 0
8.4 0.9 0
8.7 0.9 0
9 0.9 0
9.3 0.9 0
9.6 0.9 0
9.9 0.9 0
10.2 0.9 0
10.5 0.9 0
10.8 0.9 0
11.1 0.9 0
11.4 0.9 0
11.7 0.9 0
12 0.9 0
12.3 0.9 0
12.6 0.9 0
12.9 0.9 0
13.2 0.9 0
13.5 0.9 0
13.8 0.9 0
14.1 0.9 0
14.4 0.9 0
14.7 0.9 0
15 0.9 0
15.3 0.9 0
15.6 0.9 0
15.9 0.9 0
16.2 0.9 0
16.5 0.9 0
16.8 0.9 0
17.1 0.9 0
17.4 0.9 0
17.7 0.9 0
18 0.9 0
18.3 0.9 0
18.6 0.9 0
18.9 0.9 0
19.2 0.9 0
19.5 0.9 0
19.8 0.9 0
20.1 0.9 0
20.4 0.9 0
20.7 0.9 0
21 0.9 0
21.3 0.9 0
21.6 0.9 0
21.9 0.9 0
22.2 0.9 0
22.5 0.9 0
22.8 0.9 0
23.1 0.9 0
23.4 0.9 0
23.7 0.9 0
24 0.9 0
24.3 0.9 0
24.6 0.9 0
24.9 0.9 0
25.2 0.9 0
25.5 0.9 0
25.8 0.9 0
26.1 0.9 0
26.4 0.9 0
26.7 0.9 0
27 0.9 0
27.3 0.9 0
27.6 0.9 0
27.9 0.9 0
28.2 0.9 0
28.5 0.9 0
28.8 0.9 0
29.1 0.9 0
29.4 0.9 0
29.7 0.9 0
30 0.9 0
0 1 0
0.3 1 0
0.6 1 0
0.9 1 0
1.2 1 0
1.5 1 0
1.8 1 0
2.1 1 0
2.4 1 0
2.7 1 0
3 1 0
3.3 1 0
3.6 1 0
3.9 1 0
4.2 1 0
4.5 1 0
4.8 1 0
5.1 1 0
5.4 1 0
5.7 1 0
6 1 0
6.3 1 0
6.6 1 0
6.9 1 0
7.2 1 0
7.5 1 0
7.8 1 0
8.1 1 0
8.4 1 0
8.7 1 0
9 1 0
9.3 1 0
9.6 1 0
9.9 1 0
10.2 1 0
10.5 1 0
10.8 1 0
11.1 1 0
11.4 1 0
11.7 1 0
12 1 0
12.3 1 0
12.6 1 0
12.9 1 0
13.2 1 0
13.5 1 0
13.8 1 0
14.1 1 0
14.4 1 0
14.7 1 0
15 1 0
15.3 1 0
15.6 1 0
15.9 1 0
16.2 1 0
16.5 1 0
16.8 1 0
17.1 1 0
17.4 1 0
17.7 1 0
18 1 0
18.3 1 0
18.6 1 0
18.9 1 0
19.2 1 0
19.5 1 0
19.8 1 0
20.1 1 0
20.4 1 0
20.7 1 0
21 1 0
21.3 1 0
21.6 1 0
21.9 1 0
22.2 1 0
22.5 1 0
22.8 1 0
23.1 1 0
23.4 1 0
23.7 1 0
24 1 0
24.3 1 0
24.6 1 0
24.9 1 0
25.2 1 0
25.5 1 0
25.8 1 0
26.1 1 0
26.4 1 0
26.7 1 0
27 1 0
27.3 1 0
27.6 1 0
27.9 1 0
28.2 1 0
28.5 1 0
28.8 1 0
29.1 1 0
29.4 1 0
29.7 1 0
30 1 0

POINT_DATA 1111

SCALARS u double
LOOKUP_TABLE default
-1
-0.892043
-0.781757
-0.688942
-0.614561
-0.556455
-0.511782
-0.477715
-0.451748
-0.43184
-0.416452
-0.404494
-0.395222
-0.388119
-0.382793
-0.378921
-0.376212
-0.374403
-0.373257
-0.372574
-0.372196
-0.372002
-0.371913
-0.371878
-0.371867
-0.371866
-0.371867
-0.371869
-0.37187
-0.371871
-0.371872
-0.371872
-0.371872
-0.371872
-0.371872
-0.371872
-0.371872
-0.371872
-0.371872
-0.371872
-0.371872
-0.371872
-0.371872
-0.371872
-0.371872
-0.371872
-0.371872
-0.371872
-0.371872
-0.371872
-0.371873
-0.371873
-0.371873
-0.371873
-0.371873
-0.371873
-0.371873
-0.371873
-0.371873
-0.371873
-0.371873
-0.371873
-0.371873
-0.371873
-0.371873
-0.371873
-0.371873
-0.371873
-0.371873
-0.371873
-0.371873
-0.371873
-0.371873
-0.371873
-0.371873
-0.371873
-0.371873
-0.371873
-0.371873
-0.371873
-0.371873
-0.371873
-0.371873
-0.371873
-0.371873
-0.371873
-0.371873
-0.371873
-0.371873
-0.371873
-0.371873
-0.371873
-0.371873
-0.371873
-0.371874
-0.371874
-0.371884
-0.371895
-0.371977
-0.371977
-1
1
0.892043
0.781757
0.688942
0.614561
0.556455
0.511782
0.477715
0.451748
0.43184
0.416452
0.404494
0.395222
0.388119
0.382793
0.378921
0.376212
0.374403
0.373257
0.372574
0.372196
0.372002
0.371913
0.371878
0.371867
0.371866
0.371867
0.371869
0.37187
0.371871
0.371872
0.371872
0.371872
0.371872
0.371872
0.371872
0.371872
0.371872
0.371872
0.371872
0.371872
0.371872
0.371872
0.371872
0.371872
0.371872
0.371872
0.371872
0.371872
0.371872
0.371873
0.371873
0.371873
0.371873
0.371873
0.371873
0.371873
0.371873
0.371873
0.371873
0.371873
0.371873
0.371873
0.371873
0.371873
0.371873
0.371873
0.371873
0.371873
0.371873
0.371873
0.371873
0.371873
0.371873
0.371873
0.371873
0.371873
0.371873
0.371873
0.371873
0.371873
0.371873
0.371873
0.371873
0.371873
0.371873
0.371873
0.371873
0.371873
0.371873
0.371873
0.371873
0.371873
0.371873
0.371874
0.371874
0.371884
0.371895
0.371977
0.371977
1
1
1.03004
1.03872
1.03588
1.02713
1.01543
1.00248
0.989262
0.97636
0.964103
0.952698
0.942305
0.933067
0.925112
0.918524
0.913313
0.9094
0.906625
0.904775
0.903622
0.902955
0.9026
0.90243
0.902359
0.902336
0.902333
0.902337
0.902341
0.902344
0.902345
0.902347
0.902347
0.902347
0.902348
0.902348
0.902348
0.902348
0.902348
0.902348
0.902348
0.902348
0.902348
0.902348
0.902348
0.902348
0.902348
0.902348
0.902348
0.902348
0.902348
0.902348
0.902348
0.902348
0.902348
0.902348
0.902348
0.902348
0.902348
0.902349
0.902349
0.902349
0.902349
0.902349
0.902349
0.902349
0.902349
0.902349
0.902349
0.902349
0.902349
0.902349
0.902349
0.902349
0.902349
0.902349
0.902349
0.902349
0.902349
0.902349
0.902349
0.902349
0.902349
0.902349
0.902349
0.902349
0.902349
0.902349
0.902349
0.902349
0.902349
0.902349
0.902349
0.902349
0.902349
0.90235
0.902349
0.902358
0.902347
0.902522
0.902522
1
1
1.03528
1.07404
1.1071
1.13349
1.15381
1.16904
1.18023
1.18832
1.19407
1.19807
1.20077
1.20249
1.20348
1.20396
1.20409
1.20401
1.20383
1.20362
1.20343
1.20329
1.20319
1.20312
1.20308
1.20306
1.20306
1.20305
1.20305
1.20306
1.20306
1.20306
1.20306
1.20306
1.20306
1.20306
1.20306
1.20306
1.20306
1.20306
1.20306
1.20306
1.20306
1.20306
1.20306
1.20306
1.20306
1.20306
1.20306
1.20306
1.20306
1.20306
1.20306
1.20306
1.20306
1.20306
1.20306
1.20306
1.20306
1.20306
1.20306
1.20306
1.20306
1.20306
1.20306
1.20306
1.20306
1.20306
1.20306
1.20306
1.20306
1.20306
1.20306
1.20306
1.20306
1.20306
1.20306
1.20306
1.20306
1.20306
1.20306
1.20306
1.20306
1.20306
1.20306
1.20306
1.20306
1.20306
1.20306
1.20306
1.20306
1.20306
1.20306
1.20306
1.20306
1.20306
1.20306
1.20306
1.20305
1.20306
1.20306
1
1
1.02921
1.07124
1.11265
1.14986
1.18204
1.20937
1.23242
1.25189
1.26844
1.28258
1.29467
1.3049
1.3134
1.32026
1.32558
1.32954
1.33233
1.33418
1.33534
1.33602
1.33638
1.33656
1.33663
1.33666
1.33666
1.33666
1.33666
1.33665
1.33665
1.33665
1.33665
1.33665
1.33665
1.33665
1.33665
1.33665
1.33665
1.33665
1.33665
1.33665
1.33665
1.33665
1.33665
1.33665
1.33665
1.33665
1.33665
1.33665
1.33665
1.33665
1.33665
1.33665
1.33665
1.33665
1.33665
1.33665
1.33665
1.33665
1.33665
1.33665
1.33665
1.33665
1.33665
1.33665
1.33665
1.33665
1.33665
1.33665
1.33665
1.33665
1.33665
1.33665
1.33665
1.33665
1.33665
1.33665
1.33665
1.33665
1.33665
1.33665
1.33665
1.33665
1.33665
1.33665
1.33665
1.33665
1.33665
1.33665
1.33665
1.33665
1.33665
1.33665
1.33665
1.33665
1.33665
1.33664
1.33664
1.33648
1.33648
1
1
1.02685
1.06849
1.11086
1.14991
1.18453
1.21466
1.24075
1.26337
1.2831
1.3004
1.31554
1.32865
1.33977
1.34893
1.35619
1.36169
1.36564
1.36834
1.37006
1.37109
1.37167
1.37196
1.3721
1.37216
1.37217
1.37217
1.37217
1.37217
1.37216
1.37216
1.37216
1.37216
1.37216
1.37216
1.37216
1.37216
1.37216
1.37216
1.37216
1.37216
1.37216
1.37216
1.37216
1.37216
1.37216
1.37216
1.37216
1.37216
1.37216
1.37216
1.37216
1.37216
1.37216
1.37216
1.37216
1.37216
1.37216
1.37216
1.37216
1.37216
1.37216
1.37216
1.37216
1.37216
1.37216
1.37216
1.37216
1.37216
1.37216
1.37216
1.37216
1.37216
1.37216
1.37216
1.37216
1.37216
1.37216
1.37216
1.37216
1.37216
1.37216
1.37216
1.37216
1.37216
1.37216
1.37216
1.37216
1.37216
1.37216
1.37216
1.37216
1.37216
1.37216
1.37216
1.37216
1.37214
1.37215
1.37193
1.37193
1
1
1.02921
1.07124
1.11265
1.14986
1.18204
1.20937
1.23242
1.25189
1.26844
1.28258
1.29467
1.3049
1.3134
1.32026
1.32558
1.32954
1.33233
1.33418
1.33534
1.33602
1.33638
1.33656
1.33663
1.33666
1.33666
1.33666
1.33666
1.33665
1.33665
1.33665
1.33665
1.33665
1.33665
1.33665
1.33665
1.33665
1.33665
1.33665
1.33665
1.33665
1.33665
1.33665
1.33665
1.33665
1.33665
1.33665
1.33665
1.33665
1.33665
1.33665
1.33665
1.33665
1.33665
1.33665
1.33665
1.33665
1.33665
1.33665
1.33665
1.33665
1.33665
1.33665
1.33665
1.33665
1.33665
1.33665
1.33665
1.33665
1.33665
1.33665
1.33665
1.33665
1.33665
1.33665
1.33665
1.33665
1.33665
1.33665
1.33665
1.33665
1.33665
1.33665
1.33665
1.33665
1.33665
1.33665
1.33665
1.33665
1.33665
1.33665
1.33665
1.33665
1.33665
1.33665
1.33665
1.33664
1.33664
1.33648
1.33648
1
1
1.03528
1.07404
1.1071
1.13349
1.15381
1.16904
1.18023
1.18832
1.19407
1.19807
1.20077
1.20249
1.20348
1.20396
1.20409
1.20401
1.20383
1.20362
1.20343
1.20329
1.20319
1.20312
1.20308
1.20306
1.20306
1.20305
1.20305
1.20305
1.20306
1.20306
1.20306
1.20306
1.20306
1.20306
1.20306
1.20306
1.20306
1.20306
1.20306
1.20306
1.20306
1.20306
1.20306
1.20306
1.20306
1.20306
1.20306
1.20306
1.20306
1.20306
1.20306
1.20306
1.20306
1.20306
1.20306
1.20306
1.20306
1.20306
1.20306
1.20306
1.20306
1.20306
1.20306
1.20306
1.20306
1.20306
1.20306
1.20306
1.20306
1.20306
1.20306
1.20306
1.20306
1.20306
1.20306
1.20306
1.20306
1.20306
1.20306
1.20306
1.20306
1.20306
1.20306
1.20306
1.20306
1.20306
1.20306
1.20306
1.20306
1.20306
1.20306
1.20306
1.20306
1.20306
1.20306
1.20306
1.20305
1.20306
1.20306
1
1
1.03004
1.03872
1.03588
1.02713
1.01543
1.00248
0.989262
0.97636
0.964104
0.952699
0.942305
0.933067
0.925112
0.918524
0.913313
0.9094
0.906625
0.904775
0.903622
0.902955
0.9026
0.90243
0.902359
0.902336
0.902333
0.902336
0.90234
0.902343
0.902345
0.902346
0.902347
0.902347
0.902347
0.902347
0.902347
0.902348
0.902348
0.902348
0.902348
0.902348
0.902348
0.902348
0.902348
0.902348
0.902348
0.902348
0.902348
0.902348
0.902348
0.902348
0.902348
0.902348
0.902348
0.902348
0.902348
0.902348
0.902348
0.902348
0.902348
0.902348
0.902348
0.902348
0.902348
0.902348
0.902348
0.902348
0.902348
0.902348
0.902348
0.902348
0.902348
0.902348
0.902348
0.902348
0.902348
0.902348
0.902348
0.902348
0.902348
0.902348
0.902348
0.902348
0.902348
0.902348
0.902348
0.902348
0.902348
0.902348
0.902348
0.902348
0.902348
0.902348
0.902348
0.902349
0.902348
0.902357
0.902346
0.902521
0.902521
1
1
0.892043
0.781757
0.688943
0.614561
0.556455
0.511783
0.477715
0.451748
0.431841
0.416452
0.404494
0.395222
0.388119
0.382793
0.378921
0.376212
0.374403
0.373257
0.372574
0.372196
0.372002
0.371913
0.371878
0.371867
0.371866
0.371868
0.371869
0.371871
0.371871
0.371872
0.371872
0.371872
0.371872
0.371872
0.371872
0.371872
0.371872
0.371872
0.371872
0.371872
0.371872
0.371872
0.371872
0.371872
0.371872
0.371872
0.371872
0.371872
0.371872
0.371872
0.371872
0.371872
0.371872
0.371872
0.371872
0.371872
0.371872
0.371872
0.371872
0.371872
0.371872
0.371872
0.371872
0.371872
0.371872
0.371872
0.371872
0.371872
0.371872
0.371873
0.371873
0.371873
0.371873
0.371873
0.371873
0.371873
0.371873
0.371873
0.371873
0.371873
0.371873
0.371873
0.371873
0.371873
0.371873
0.371873
0.371873
0.371873
0.371873
0.371873
0.371873
0.371873
0.371873
0.371873
0.371873
0.371884
0.371895
0.371977
0.371977
1
-1
-0.892043
-0.781757
-0.688943
-0.614561
-0.556455
-0.511783
-0.477715
-0.451748
-0.431841
-0.416452
-0.404494
-0.395222
-0.388119
-0.382793
-0.378921
-0.376212
-0.374403
-0.373257
-0.372574
-0.372196
-0.372002
-0.371913
-0.371878
-0.371867
-0.371866
-0.371868
-0.371869
-0.371871
-0.371871
-0.371872
-0.371872
-0.371872
-0.371872
-0.371872
-0.371872
-0.371872
-0.371872
-0.371872
-0.371872
-0.371872
-0.371872
-0.371872
-0.371872
-0.371872
-0.371872
-0.371872
-0.371872
-0.371872
-0.371872
-0.371872
-0.371872
-0.371872
-0.371872
-0.371872
-0.371872
-0.371872
-0.371872
-0.371872
-0.371872
-0.371872
-0.371872
-0.371872
-0.371872
-0.371872
-0.371872
-0.371872
-0.371872
-0.371872
-0.371872
-0.371873
-0.371873
-0.371873
-0.371873
-0.371873
-0.371873
-0.371873
-0.371873
-0.371873
-0.371873
-0.371873
-0.371873
-0.371873
-0.371873
-0.371873
-0.371873
-0.371873
-0.371873
-0.371873
-0.371873
-0.371873
-0.371873
-0.371873
-0.371873
-0.371873
-0.371873
-0.371884
-0.371895
-0.371977
-0.371977
-1
