# vtk DataFile Version 2.0
FlowField
ASCII
DATASET STRUCTURED_GRID
DIMENSIONS 102 13 1 
POINTS 1326 double
0 0 0
0.3 0 0
0.6 0 0
0.9 0 0
1.2 0 0
1.5 0 0
1.8 0 0
2.1 0 0
2.4 0 0
2.7 0 0
3 0 0
3.3 0 0
3.6 0 0
3.9 0 0
4.2 0 0
4.5 0 0
4.8 0 0
5.1 0 0
5.4 0 0
5.7 0 0
6 0 0
6.3 0 0
6.6 0 0
6.9 0 0
7.2 0 0
7.5 0 0
7.8 0 0
8.1 0 0
8.4 0 0
8.7 0 0
9 0 0
9.3 0 0
9.6 0 0
9.9 0 0
10.2 0 0
10.5 0 0
10.8 0 0
11.1 0 0
11.4 0 0
11.7 0 0
12 0 0
12.3 0 0
12.6 0 0
12.9 0 0
13.2 0 0
13.5 0 0
13.8 0 0
14.1 0 0
14.4 0 0
14.7 0 0
15 0 0
15.3 0 0
15.6 0 0
15.9 0 0
16.2 0 0
16.5 0 0
16.8 0 0
17.1 0 0
17.4 0 0
17.7 0 0
18 0 0
18.3 0 0
18.6 0 0
18.9 0 0
19.2 0 0
19.5 0 0
19.8 0 0
20.1 0 0
20.4 0 0
20.7 0 0
21 0 0
21.3 0 0
21.6 0 0
21.9 0 0
22.2 0 0
22.5 0 0
22.8 0 0
23.1 0 0
23.4 0 0
23.7 0 0
24 0 0
24.3 0 0
24.6 0 0
24.9 0 0
25.2 0 0
25.5 0 0
25.8 0 0
26.1 0 0
26.4 0 0
26.7 0 0
27 0 0
27.3 0 0
27.6 0 0
27.9 0 0
28.2 0 0
28.5 0 0
28.8 0 0
29.1 0 0
29.4 0 0
29.7 0 0
30 0 0
30.3 0 0
0 0.1 0
0.3 0.1 0
0.6 0.1 0
0.9 0.1 0
1.2 0.1 0
1.5 0.1 0
1.8 0.1 0
2.1 0.1 0
2.4 0.1 0
2.7 0.1 0
3 0.1 0
3.3 0.1 0
3.6 0.1 0
3.9 0.1 0
4.2 0.1 0
4.5 0.1 0
4.8 0.1 0
5.1 0.1 0
5.4 0.1 0
5.7 0.1 0
6 0.1 0
6.3 0.1 0
6.6 0.1 0
6.9 0.1 0
7.2 0.1 0
7.5 0.1 0
7.8 0.1 0
8.1 0.1 0
8.4 0.1 0
8.7 0.1 0
9 0.1 0
9.3 0.1 0
9.6 0.1 0
9.9 0.1 0
10.2 0.1 0
10.5 0.1 0
10.8 0.1 0
11.1 0.1 0
11.4 0.1 0
11.7 0.1 0
12 0.1 0
12.3 0.1 0
12.6 0.1 0
12.9 0.1 0
13.2 0.1 0
13.5 0.1 0
13.8 0.1 0
14.1 0.1 0
14.4 0.1 0
14.7 0.1 0
15 0.1 0
15.3 0.1 0
15.6 0.1 0
15.9 0.1 0
16.2 0.1 0
16.5 0.1 0
16.8 0.1 0
17.1 0.1 0
17.4 0.1 0
17.7 0.1 0
18 0.1 0
18.3 0.1 0
18.6 0.1 0
18.9 0.1 0
19.2 0.1 0
19.5 0.1 0
19.8 0.1 0
20.1 0.1 0
20.4 0.1 0
20.7 0.1 0
21 0.1 0
21.3 0.1 0
21.6 0.1 0
21.9 0.1 0
22.2 0.1 0
22.5 0.1 0
22.8 0.1 0
23.1 0.1 0
23.4 0.1 0
23.7 0.1 0
24 0.1 0
24.3 0.1 0
24.6 0.1 0
24.9 0.1 0
25.2 0.1 0
25.5 0.1 0
25.8 0.1 0
26.1 0.1 0
26.4 0.1 0
26.7 0.1 0
27 0.1 0
27.3 0.1 0
27.6 0.1 0
27.9 0.1 0
28.2 0.1 0
28.5 0.1 0
28.8 0.1 0
29.1 0.1 0
29.4 0.1 0
29.7 0.1 0
30 0.1 0
30.3 0.1 0
0 0.2 0
0.3 0.2 0
0.6 0.2 0
0.9 0.2 0
1.2 0.2 0
1.5 0.2 0
1.8 0.2 0
2.1 0.2 0
2.4 0.2 0
2.7 0.2 0
3 0.2 0
3.3 0.2 0
3.6 0.2 0
3.9 0.2 0
4.2 0.2 0
4.5 0.2 0
4.8 0.2 0
5.1 0.2 0
5.4 0.2 0
5.7 0.2 0
6 0.2 0
6.3 0.2 0
6.6 0.2 0
6.9 0.2 0
7.2 0.2 0
7.5 0.2 0
7.8 0.2 0
8.1 0.2 0
8.4 0.2 0
8.7 0.2 0
9 0.2 0
9.3 0.2 0
9.6 0.2 0
9.9 0.2 0
10.2 0.2 0
10.5 0.2 0
10.8 0.2 0
11.1 0.2 0
11.4 0.2 0
11.7 0.2 0
12 0.2 0
12.3 0.2 0
12.6 0.2 0
12.9 0.2 0
13.2 0.2 0
13.5 0.2 0
13.8 0.2 0
14.1 0.2 0
14.4 0.2 0
14.7 0.2 0
15 0.2 0
15.3 0.2 0
15.6 0.2 0
15.9 0.2 0
16.2 0.2 0
16.5 0.2 0
16.8 0.2 0
17.1 0.2 0
17.4 0.2 0
17.7 0.2 0
18 0.2 0
18.3 0.2 0
18.6 0.2 0
18.9 0.2 0
19.2 0.2 0
19.5 0.2 0
19.8 0.2 0
20.1 0.2 0
20.4 0.2 0
20.7 0.2 0
21 0.2 0
21.3 0.2 0
21.6 0.2 0
21.9 0.2 0
22.2 0.2 0
22.5 0.2 0
22.8 0.2 0
23.1 0.2 0
23.4 0.2 0
23.7 0.2 0
24 0.2 0
24.3 0.2 0
24.6 0.2 0
24.9 0.2 0
25.2 0.2 0
25.5 0.2 0
25.8 0.2 0
26.1 0.2 0
26.4 0.2 0
26.7 0.2 0
27 0.2 0
27.3 0.2 0
27.6 0.2 0
27.9 0.2 0
28.2 0.2 0
28.5 0.2 0
28.8 0.2 0
29.1 0.2 0
29.4 0.2 0
29.7 0.2 0
30 0.2 0
30.3 0.2 0
0 0.3 0
0.3 0.3 0
0.6 0.3 0
0.9 0.3 0
1.2 0.3 0
1.5 0.3 0
1.8 0.3 0
2.1 0.3 0
2.4 0.3 0
2.7 0.3 0
3 0.3 0
3.3 0.3 0
3.6 0.3 0
3.9 0.3 0
4.2 0.3 0
4.5 0.3 0
4.8 0.3 0
5.1 0.3 0
5.4 0.3 0
5.7 0.3 0
6 0.3 0
6.3 0.3 0
6.6 0.3 0
6.9 0.3 0
7.2 0.3 0
7.5 0.3 0
7.8 0.3 0
8.1 0.3 0
8.4 0.3 0
8.7 0.3 0
9 0.3 0
9.3 0.3 0
9.6 0.3 0
9.9 0.3 0
10.2 0.3 0
10.5 0.3 0
10.8 0.3 0
11.1 0.3 0
11.4 0.3 0
11.7 0.3 0
12 0.3 0
12.3 0.3 0
12.6 0.3 0
12.9 0.3 0
13.2 0.3 0
13.5 0.3 0
13.8 0.3 0
14.1 0.3 0
14.4 0.3 0
14.7 0.3 0
15 0.3 0
15.3 0.3 0
15.6 0.3 0
15.9 0.3 0
16.2 0.3 0
16.5 0.3 0
16.8 0.3 0
17.1 0.3 0
17.4 0.3 0
17.7 0.3 0
18 0.3 0
18.3 0.3 0
18.6 0.3 0
18.9 0.3 0
19.2 0.3 0
19.5 0.3 0
19.8 0.3 0
20.1 0.3 0
20.4 0.3 0
20.7 0.3 0
21 0.3 0
21.3 0.3 0
21.6 0.3 0
21.9 0.3 0
22.2 0.3 0
22.5 0.3 0
22.8 0.3 0
23.1 0.3 0
23.4 0.3 0
23.7 0.3 0
24 0.3 0
24.3 0.3 0
24.6 0.3 0
24.9 0.3 0
25.2 0.3 0
25.5 0.3 0
25.8 0.3 0
26.1 0.3 0
26.4 0.3 0
26.7 0.3 0
27 0.3 0
27.3 0.3 0
27.6 0.3 0
27.9 0.3 0
28.2 0.3 0
28.5 0.3 0
28.8 0.3 0
29.1 0.3 0
29.4 0.3 0
29.7 0.3 0
30 0.3 0
30.3 0.3 0
0 0.4 0
0.3 0.4 0
0.6 0.4 0
0.9 0.4 0
1.2 0.4 0
1.5 0.4 0
1.8 0.4 0
2.1 0.4 0
2.4 0.4 0
2.7 0.4 0
3 0.4 0
3.3 0.4 0
3.6 0.4 0
3.9 0.4 0
4.2 0.4 0
4.5 0.4 0
4.8 0.4 0
5.1 0.4 0
5.4 0.4 0
5.7 0.4 0
6 0.4 0
6.3 0.4 0
6.6 0.4 0
6.9 0.4 0
7.2 0.4 0
7.5 0.4 0
7.8 0.4 0
8.1 0.4 0
8.4 0.4 0
8.7 0.4 0
9 0.4 0
9.3 0.4 0
9.6 0.4 0
9.9 0.4 0
10.2 0.4 0
10.5 0.4 0
10.8 0.4 0
11.1 0.4 0
11.4 0.4 0
11.7 0.4 0
12 0.4 0
12.3 0.4 0
12.6 0.4 0
12.9 0.4 0
13.2 0.4 0
13.5 0.4 0
13.8 0.4 0
14.1 0.4 0
14.4 0.4 0
14.7 0.4 0
15 0.4 0
15.3 0.4 0
15.6 0.4 0
15.9 0.4 0
16.2 0.4 0
16.5 0.4 0
16.8 0.4 0
17.1 0.4 0
17.4 0.4 0
17.7 0.4 0
18 0.4 0
18.3 0.4 0
18.6 0.4 0
18.9 0.4 0
19.2 0.4 0
19.5 0.4 0
19.8 0.4 0
20.1 0.4 0
20.4 0.4 0
20.7 0.4 0
21 0.4 0
21.3 0.4 0
21.6 0.4 0
21.9 0.4 0
22.2 0.4 0
22.5 0.4 0
22.8 0.4 0
23.1 0.4 0
23.4 0.4 0
23.7 0.4 0
24 0.4 0
24.3 0.4 0
24.6 0.4 0
24.9 0.4 0
25.2 0.4 0
25.5 0.4 0
25.8 0.4 0
26.1 0.4 0
26.4 0.4 0
26.7 0.4 0
27 0.4 0
27.3 0.4 0
27.6 0.4 0
27.9 0.4 0
28.2 0.4 0
28.5 0.4 0
28.8 0.4 0
29.1 0.4 0
29.4 0.4 0
29.7 0.4 0
30 0.4 0
30.3 0.4 0
0 0.5 0
0.3 0.5 0
0.6 0.5 0
0.9 0.5 0
1.2 0.5 0
1.5 0.5 0
1.8 0.5 0
2.1 0.5 0
2.4 0.5 0
2.7 0.5 0
3 0.5 0
3.3 0.5 0
3.6 0.5 0
3.9 0.5 0
4.2 0.5 0
4.5 0.5 0
4.8 0.5 0
5.1 0.5 0
5.4 0.5 0
5.7 0.5 0
6 0.5 0
6.3 0.5 0
6.6 0.5 0
6.9 0.5 0
7.2 0.5 0
7.5 0.5 0
7.8 0.5 0
8.1 0.5 0
8.4 0.5 0
8.7 0.5 0
9 0.5 0
9.3 0.5 0
9.6 0.5 0
9.9 0.5 0
10.2 0.5 0
10.5 0.5 0
10.8 0.5 0
11.1 0.5 0
11.4 0.5 0
11.7 0.5 0
12 0.5 0
12.3 0.5 0
12.6 0.5 0
12.9 0.5 0
13.2 0.5 0
13.5 0.5 0
13.8 0.5 0
14.1 0.5 0
14.4 0.5 0
14.7 0.5 0
15 0.5 0
15.3 0.5 0
15.6 0.5 0
15.9 0.5 0
16.2 0.5 0
16.5 0.5 0
16.8 0.5 0
17.1 0.5 0
17.4 0.5 0
17.7 0.5 0
18 0.5 0
18.3 0.5 0
18.6 0.5 0
18.9 0.5 0
19.2 0.5 0
19.5 0.5 0
19.8 0.5 0
20.1 0.5 0
20.4 0.5 0
20.7 0.5 0
21 0.5 0
21.3 0.5 0
21.6 0.5 0
21.9 0.5 0
22.2 0.5 0
22.5 0.5 0
22.8 0.5 0
23.1 0.5 0
23.4 0.5 0
23.7 0.5 0
24 0.5 0
24.3 0.5 0
24.6 0.5 0
24.9 0.5 0
25.2 0.5 0
25.5 0.5 0
25.8 0.5 0
26.1 0.5 0
26.4 0.5 0
26.7 0.5 0
27 0.5 0
27.3 0.5 0
27.6 0.5 0
27.9 0.5 0
28.2 0.5 0
28.5 0.5 0
28.8 0.5 0
29.1 0.5 0
29.4 0.5 0
29.7 0.5 0
30 0.5 0
30.3 0.5 0
0 0.6 0
0.3 0.6 0
0.6 0.6 0
0.9 0.6 0
1.2 0.6 0
1.5 0.6 0
1.8 0.6 0
2.1 0.6 0
2.4 0.6 0
2.7 0.6 0
3 0.6 0
3.3 0.6 0
3.6 0.6 0
3.9 0.6 0
4.2 0.6 0
4.5 0.6 0
4.8 0.6 0
5.1 0.6 0
5.4 0.6 0
5.7 0.6 0
6 0.6 0
6.3 0.6 0
6.6 0.6 0
6.9 0.6 0
7.2 0.6 0
7.5 0.6 0
7.8 0.6 0
8.1 0.6 0
8.4 0.6 0
8.7 0.6 0
9 0.6 0
9.3 0.6 0
9.6 0.6 0
9.9 0.6 0
10.2 0.6 0
10.5 0.6 0
10.8 0.6 0
11.1 0.6 0
11.4 0.6 0
11.7 0.6 0
12 0.6 0
12.3 0.6 0
12.6 0.6 0
12.9 0.6 0
13.2 0.6 0
13.5 0.6 0
13.8 0.6 0
14.1 0.6 0
14.4 0.6 0
14.7 0.6 0
15 0.6 0
15.3 0.6 0
15.6 0.6 0
15.9 0.6 0
16.2 0.6 0
16.5 0.6 0
16.8 0.6 0
17.1 0.6 0
17.4 0.6 0
17.7 0.6 0
18 0.6 0
18.3 0.6 0
18.6 0.6 0
18.9 0.6 0
19.2 0.6 0
19.5 0.6 0
19.8 0.6 0
20.1 0.6 0
20.4 0.6 0
20.7 0.6 0
21 0.6 0
21.3 0.6 0
21.6 0.6 0
21.9 0.6 0
22.2 0.6 0
22.5 0.6 0
22.8 0.6 0
23.1 0.6 0
23.4 0.6 0
23.7 0.6 0
24 0.6 0
24.3 0.6 0
24.6 0.6 0
24.9 0.6 0
25.2 0.6 0
25.5 0.6 0
25.8 0.6 0
26.1 0.6 0
26.4 0.6 0
26.7 0.6 0
27 0.6 0
27.3 0.6 0
27.6 0.6 0
27.9 0.6 0
28.2 0.6 0
28.5 0.6 0
28.8 0.6 0
29.1 0.6 0
29.4 0.6 0
29.7 0.6 0
30 0.6 0
30.3 0.6 0
0 0.7 0
0.3 0.7 0
0.6 0.7 0
0.9 0.7 0
1.2 0.7 0
1.5 0.7 0
1.8 0.7 0
2.1 0.7 0
2.4 0.7 0
2.7 0.7 0
3 0.7 0
3.3 0.7 0
3.6 0.7 0
3.9 0.7 0
4.2 0.7 0
4.5 0.7 0
4.8 0.7 0
5.1 0.7 0
5.4 0.7 0
5.7 0.7 0
6 0.7 0
6.3 0.7 0
6.6 0.7 0
6.9 0.7 0
7.2 0.7 0
7.5 0.7 0
7.8 0.7 0
8.1 0.7 0
8.4 0.7 0
8.7 0.7 0
9 0.7 0
9.3 0.7 0
9.6 0.7 0
9.9 0.7 0
10.2 0.7 0
10.5 0.7 0
10.8 0.7 0
11.1 0.7 0
11.4 0.7 0
11.7 0.7 0
12 0.7 0
12.3 0.7 0
12.6 0.7 0
12.9 0.7 0
13.2 0.7 0
13.5 0.7 0
13.8 0.7 0
14.1 0.7 0
14.4 0.7 0
14.7 0.7 0
15 0.7 0
15.3 0.7 0
15.6 0.7 0
15.9 0.7 0
16.2 0.7 0
16.5 0.7 0
16.8 0.7 0
17.1 0.7 0
17.4 0.7 0
17.7 0.7 0
18 0.7 0
18.3 0.7 0
18.6 0.7 0
18.9 0.7 0
19.2 0.7 0
19.5 0.7 0
19.8 0.7 0
20.1 0.7 0
20.4 0.7 0
20.7 0.7 0
21 0.7 0
21.3 0.7 0
21.6 0.7 0
21.9 0.7 0
22.2 0.7 0
22.5 0.7 0
22.8 0.7 0
23.1 0.7 0
23.4 0.7 0
23.7 0.7 0
24 0.7 0
24.3 0.7 0
24.6 0.7 0
24.9 0.7 0
25.2 0.7 0
25.5 0.7 0
25.8 0.7 0
26.1 0.7 0
26.4 0.7 0
26.7 0.7 0
27 0.7 0
27.3 0.7 0
27.6 0.7 0
27.9 0.7 0
28.2 0.7 0
28.5 0.7 0
28.8 0.7 0
29.1 0.7 0
29.4 0.7 0
29.7 0.7 0
30 0.7 0
30.3 0.7 0
0 0.8 0
0.3 0.8 0
0.6 0.8 0
0.9 0.8 0
1.2 0.8 0
1.5 0.8 0
1.8 0.8 0
2.1 0.8 0
2.4 0.8 0
2.7 0.8 0
3 0.8 0
3.3 0.8 0
3.6 0.8 0
3.9 0.8 0
4.2 0.8 0
4.5 0.8 0
4.8 0.8 0
5.1 0.8 0
5.4 0.8 0
5.7 0.8 0
6 0.8 0
6.3 0.8 0
6.6 0.8 0
6.9 0.8 0
7.2 0.8 0
7.5 0.8 0
7.8 0.8 0
8.1 0.8 0
8.4 0.8 0
8.7 0.8 0
9 0.8 0
9.3 0.8 0
9.6 0.8 0
9.9 0.8 0
10.2 0.8 0
10.5 0.8 0
10.8 0.8 0
11.1 0.8 0
11.4 0.8 0
11.7 0.8 0
12 0.8 0
12.3 0.8 0
12.6 0.8 0
12.9 0.8 0
13.2 0.8 0
13.5 0.8 0
13.8 0.8 0
14.1 0.8 0
14.4 0.8 0
14.7 0.8 0
15 0.8 0
15.3 0.8 0
15.6 0.8 0
15.9 0.8 0
16.2 0.8 0
16.5 0.8 0
16.8 0.8 0
17.1 0.8 0
17.4 0.8 0
17.7 0.8 0
18 0.8 0
18.3 0.8 0
18.6 0.8 0
18.9 0.8 0
19.2 0.8 0
19.5 0.8 0
19.8 0.8 0
20.1 0.8 0
20.4 0.8 0
20.7 0.8 0
21 0.8 0
21.3 0.8 0
21.6 0.8 0
21.9 0.8 0
22.2 0.8 0
22.5 0.8 0
22.8 0.8 0
23.1 0.8 0
23.4 0.8 0
23.7 0.8 0
24 0.8 0
24.3 0.8 0
24.6 0.8 0
24.9 0.8 0
25.2 0.8 0
25.5 0.8 0
25.8 0.8 0
26.1 0.8 0
26.4 0.8 0
26.7 0.8 0
27 0.8 0
27.3 0.8 0
27.6 0.8 0
27.9 0.8 0
28.2 0.8 0
28.5 0.8 0
28.8 0.8 0
29.1 0.8 0
29.4 0.8 0
29.7 0.8 0
30 0.8 0
30.3 0.8 0
0 0.9 0
0.3 0.9 0
0.6 0.9 0
0.9 0.9 0
1.2 0.9 0
1.5 0.9 0
1.8 0.9 0
2.1 0.9 0
2.4 0.9 0
2.7 0.9 0
3 0.9 0
3.3 0.9 0
3.6 0.9 0
3.9 0.9 0
4.2 0.9 0
4.5 0.9 0
4.8 0.9 0
5.1 0.9 0
5.4 0.9 0
5.7 0.9 0
6 0.9 0
6.3 0.9 0
6.6 0.9 0
6.9 0.9 0
7.2 0.9 0
7.5 0.9 0
7.8 0.9 0
8.1 0.9 0
8.4 0.9 0
8.7 0.9 0
9 0.9 0
9.3 0.9 0
9.6 0.9 0
9.9 0.9 0
10.2 0.9 0
10.5 0.9 0
10.8 0.9 0
11.1 0.9 0
11.4 0.9 0
11.7 0.9 0
12 0.9 0
12.3 0.9 0
12.6 0.9 0
12.9 0.9 0
13.2 0.9 0
13.5 0.9 0
13.8 0.9 0
14.1 0.9 0
14.4 0.9 0
14.7 0.9 0
15 0.9 0
15.3 0.9 0
15.6 0.9 0
15.9 0.9 0
16.2 0.9 0
16.5 0.9 0
16.8 0.9 0
17.1 0.9 0
17.4 0.9 0
17.7 0.9 0
18 0.9 0
18.3 0.9 0
18.6 0.9 0
18.9 0.9 0
19.2 0.9 0
19.5 0.9 0
19.8 0.9 0
20.1 0.9 0
20.4 0.9 0
20.7 0.9 0
21 0.9 0
21.3 0.9 0
21.6 0.9 0
21.9 0.9 0
22.2 0.9 0
22.5 0.9 0
22.8 0.9 0
23.1 0.9 0
23.4 0.9 0
23.7 0.9 0
24 0.9 0
24.3 0.9 0
24.6 0.9 0
24.9 0.9 0
25.2 0.9 0
25.5 0.9 0
25.8 0.9 0
26.1 0.9 0
26.4 0.9 0
26.7 0.9 0
27 0.9 0
27.3 0.9 0
27.6 0.9 0
27.9 0.9 0
28.2 0.9 0
28.5 0.9 0
28.8 0.9 0
29.1 0.9 0
29.4 0.9 0
29.7 0.9 0
30 0.9 0
30.3 0.9 0
0 1 0
0.3 1 0
0.6 1 0
0.9 1 0
1.2 1 0
1.5 1 0
1.8 1 0
2.1 1 0
2.4 1 0
2.7 1 0
3 1 0
3.3 1 0
3.6 1 0
3.9 1 0
4.2 1 0
4.5 1 0
4.8 1 0
5.1 1 0
5.4 1 0
5.7 1 0
6 1 0
6.3 1 0
6.6 1 0
6.9 1 0
7.2 1 0
7.5 1 0
7.8 1 0
8.1 1 0
8.4 1 0
8.7 1 0
9 1 0
9.3 1 0
9.6 1 0
9.9 1 0
10.2 1 0
10.5 1 0
10.8 1 0
11.1 1 0
11.4 1 0
11.7 1 0
12 1 0
12.3 1 0
12.6 1 0
12.9 1 0
13.2 1 0
13.5 1 0
13.8 1 0
14.1 1 0
14.4 1 0
14.7 1 0
15 1 0
15.3 1 0
15.6 1 0
15.9 1 0
16.2 1 0
16.5 1 0
16.8 1 0
17.1 1 0
17.4 1 0
17.7 1 0
18 1 0
18.3 1 0
18.6 1 0
18.9 1 0
19.2 1 0
19.5 1 0
19.8 1 0
20.1 1 0
20.4 1 0
20.7 1 0
21 1 0
21.3 1 0
21.6 1 0
21.9 1 0
22.2 1 0
22.5 1 0
22.8 1 0
23.1 1 0
23.4 1 0
23.7 1 0
24 1 0
24.3 1 0
24.6 1 0
24.9 1 0
25.2 1 0
25.5 1 0
25.8 1 0
26.1 1 0
26.4 1 0
26.7 1 0
27 1 0
27.3 1 0
27.6 1 0
27.9 1 0
28.2 1 0
28.5 1 0
28.8 1 0
29.1 1 0
29.4 1 0
29.7 1 0
30 1 0
30.3 1 0
0 1.1 0
0.3 1.1 0
0.6 1.1 0
0.9 1.1 0
1.2 1.1 0
1.5 1.1 0
1.8 1.1 0
2.1 1.1 0
2.4 1.1 0
2.7 1.1 0
3 1.1 0
3.3 1.1 0
3.6 1.1 0
3.9 1.1 0
4.2 1.1 0
4.5 1.1 0
4.8 1.1 0
5.1 1.1 0
5.4 1.1 0
5.7 1.1 0
6 1.1 0
6.3 1.1 0
6.6 1.1 0
6.9 1.1 0
7.2 1.1 0
7.5 1.1 0
7.8 1.1 0
8.1 1.1 0
8.4 1.1 0
8.7 1.1 0
9 1.1 0
9.3 1.1 0
9.6 1.1 0
9.9 1.1 0
10.2 1.1 0
10.5 1.1 0
10.8 1.1 0
11.1 1.1 0
11.4 1.1 0
11.7 1.1 0
12 1.1 0
12.3 1.1 0
12.6 1.1 0
12.9 1.1 0
13.2 1.1 0
13.5 1.1 0
13.8 1.1 0
14.1 1.1 0
14.4 1.1 0
14.7 1.1 0
15 1.1 0
15.3 1.1 0
15.6 1.1 0
15.9 1.1 0
16.2 1.1 0
16.5 1.1 0
16.8 1.1 0
17.1 1.1 0
17.4 1.1 0
17.7 1.1 0
18 1.1 0
18.3 1.1 0
18.6 1.1 0
18.9 1.1 0
19.2 1.1 0
19.5 1.1 0
19.8 1.1 0
20.1 1.1 0
20.4 1.1 0
20.7 1.1 0
21 1.1 0
21.3 1.1 0
21.6 1.1 0
21.9 1.1 0
22.2 1.1 0
22.5 1.1 0
22.8 1.1 0
23.1 1.1 0
23.4 1.1 0
23.7 1.1 0
24 1.1 0
24.3 1.1 0
24.6 1.1 0
24.9 1.1 0
25.2 1.1 0
25.5 1.1 0
25.8 1.1 0
26.1 1.1 0
26.4 1.1 0
26.7 1.1 0
27 1.1 0
27.3 1.1 0
27.6 1.1 0
27.9 1.1 0
28.2 1.1 0
28.5 1.1 0
28.8 1.1 0
29.1 1.1 0
29.4 1.1 0
29.7 1.1 0
30 1.1 0
30.3 1.1 0
0 1.2 0
0.3 1.2 0
0.6 1.2 0
0.9 1.2 0
1.2 1.2 0
1.5 1.2 0
1.8 1.2 0
2.1 1.2 0
2.4 1.2 0
2.7 1.2 0
3 1.2 0
3.3 1.2 0
3.6 1.2 0
3.9 1.2 0
4.2 1.2 0
4.5 1.2 0
4.8 1.2 0
5.1 1.2 0
5.4 1.2 0
5.7 1.2 0
6 1.2 0
6.3 1.2 0
6.6 1.2 0
6.9 1.2 0
7.2 1.2 0
7.5 1.2 0
7.8 1.2 0
8.1 1.2 0
8.4 1.2 0
8.7 1.2 0
9 1.2 0
9.3 1.2 0
9.6 1.2 0
9.9 1.2 0
10.2 1.2 0
10.5 1.2 0
10.8 1.2 0
11.1 1.2 0
11.4 1.2 0
11.7 1.2 0
12 1.2 0
12.3 1.2 0
12.6 1.2 0
12.9 1.2 0
13.2 1.2 0
13.5 1.2 0
13.8 1.2 0
14.1 1.2 0
14.4 1.2 0
14.7 1.2 0
15 1.2 0
15.3 1.2 0
15.6 1.2 0
15.9 1.2 0
16.2 1.2 0
16.5 1.2 0
16.8 1.2 0
17.1 1.2 0
17.4 1.2 0
17.7 1.2 0
18 1.2 0
18.3 1.2 0
18.6 1.2 0
18.9 1.2 0
19.2 1.2 0
19.5 1.2 0
19.8 1.2 0
20.1 1.2 0
20.4 1.2 0
20.7 1.2 0
21 1.2 0
21.3 1.2 0
21.6 1.2 0
21.9 1.2 0
22.2 1.2 0
22.5 1.2 0
22.8 1.2 0
23.1 1.2 0
23.4 1.2 0
23.7 1.2 0
24 1.2 0
24.3 1.2 0
24.6 1.2 0
24.9 1.2 0
25.2 1.2 0
25.5 1.2 0
25.8 1.2 0
26.1 1.2 0
26.4 1.2 0
26.7 1.2 0
27 1.2 0
27.3 1.2 0
27.6 1.2 0
27.9 1.2 0
28.2 1.2 0
28.5 1.2 0
28.8 1.2 0
29.1 1.2 0
29.4 1.2 0
29.7 1.2 0
30 1.2 0
30.3 1.2 0

POINT_DATA 1326

SCALARS p double
LOOKUP_TABLE default
1.16077
1.16077
1.09593
1.05169
1.01187
0.975292
0.94224
0.912713
0.886357
0.862648
0.841045
0.821083
0.80239
0.784691
0.767784
0.751524
0.735806
0.72055
0.705698
0.691203
0.677028
0.663144
0.649523
0.636144
0.622989
0.610039
0.597279
0.584696
0.572279
0.560015
0.547894
0.535908
0.524047
0.512303
0.50067
0.489141
0.47771
0.46637
0.455117
0.443945
0.43285
0.421828
0.410873
0.399983
0.389154
0.378383
0.367665
0.357
0.346383
0.335812
0.325284
0.314797
0.304349
0.293939
0.283563
0.273219
0.262907
0.252625
0.24237
0.232142
0.221938
0.211759
0.201602
0.191466
0.181351
0.171254
0.161176
0.151114
0.141069
0.131039
0.121024
0.111022
0.101033
0.0910567
0.081092
0.0711383
0.0611952
0.0512621
0.0413386
0.0314242
0.0215186
0.0116214
0.00173231
-0.00814906
-0.018023
-0.0278896
-0.0377493
-0.0476024
-0.0574491
-0.0672897
-0.0771244
-0.0869536
-0.0967775
-0.106597
-0.116411
-0.126221
-0.136027
-0.14583
-0.15563
-0.165427
-0.175221
0.175221
1.16077
1.16077
1.09593
1.05169
1.01187
0.975292
0.94224
0.912713
0.886357
0.862648
0.841045
0.821083
0.80239
0.784691
0.767784
0.751524
0.735806
0.72055
0.705698
0.691203
0.677028
0.663144
0.649523
0.636144
0.622989
0.610039
0.597279
0.584696
0.572279
0.560015
0.547894
0.535908
0.524047
0.512303
0.50067
0.489141
0.47771
0.46637
0.455117
0.443945
0.43285
0.421828
0.410873
0.399983
0.389154
0.378383
0.367665
0.357
0.346383
0.335812
0.325284
0.314797
0.304349
0.293939
0.283563
0.273219
0.262907
0.252625
0.24237
0.232142
0.221938
0.211759
0.201602
0.191466
0.181351
0.171254
0.161176
0.151114
0.141069
0.131039
0.121024
0.111022
0.101033
0.0910567
0.081092
0.0711383
0.0611952
0.0512621
0.0413386
0.0314242
0.0215186
0.0116214
0.00173231
-0.00814906
-0.018023
-0.0278896
-0.0377493
-0.0476024
-0.0574491
-0.0672897
-0.0771244
-0.0869536
-0.0967775
-0.106597
-0.116411
-0.126221
-0.136027
-0.14583
-0.15563
-0.165427
-0.175221
0.175221
1.13983
1.13983
1.09394
1.05192
1.01257
0.976088
0.942983
0.913345
0.886865
0.863043
0.841349
0.821316
0.802572
0.784835
0.767901
0.751621
0.735888
0.720622
0.70576
0.691258
0.677078
0.663189
0.649563
0.636181
0.623022
0.61007
0.597307
0.584723
0.572303
0.560037
0.547915
0.535927
0.524065
0.51232
0.500686
0.489156
0.477724
0.466383
0.455129
0.443956
0.432861
0.421837
0.410882
0.399992
0.389163
0.37839
0.367673
0.357007
0.346389
0.335818
0.32529
0.314803
0.304355
0.293943
0.283567
0.273223
0.262911
0.252628
0.242374
0.232145
0.221942
0.211762
0.201605
0.191469
0.181353
0.171257
0.161178
0.151117
0.141071
0.131041
0.121026
0.111024
0.101035
0.0910583
0.0810935
0.0711397
0.0611965
0.0512634
0.0413398
0.0314253
0.0215197
0.0116224
0.00173319
-0.00814825
-0.0180222
-0.0278889
-0.0377487
-0.0476019
-0.0574486
-0.0672892
-0.077124
-0.0869532
-0.0967772
-0.106596
-0.116411
-0.126221
-0.136027
-0.14583
-0.155629
-0.165426
-0.17522
0.17522
1.12485
1.12485
1.09106
1.05215
1.01368
0.977412
0.944245
0.914423
0.887726
0.863702
0.841841
0.821681
0.802843
0.78504
0.768059
0.751746
0.73599
0.720705
0.705831
0.691319
0.677131
0.663235
0.649605
0.636218
0.623055
0.6101
0.597335
0.584747
0.572326
0.560058
0.547934
0.535944
0.524081
0.512334
0.5007
0.489169
0.477735
0.466394
0.455139
0.443966
0.43287
0.421846
0.41089
0.399999
0.389169
0.378397
0.367679
0.357013
0.346395
0.335823
0.325294
0.314807
0.304359
0.293947
0.283571
0.273227
0.262914
0.252632
0.242376
0.232148
0.221944
0.211765
0.201607
0.191471
0.181355
0.171259
0.16118
0.151118
0.141073
0.131043
0.121027
0.111025
0.101036
0.0910595
0.0810947
0.0711408
0.0611975
0.0512643
0.0413407
0.0314262
0.0215204
0.0116231
0.00173387
-0.00814763
-0.0180216
-0.0278884
-0.0377483
-0.0476015
-0.0574483
-0.0672889
-0.0771237
-0.086953
-0.096777
-0.106596
-0.116411
-0.126221
-0.136027
-0.14583
-0.155629
-0.165426
-0.175217
0.175217
1.11528
1.11528
1.08857
1.05226
1.01464
0.978607
0.945421
0.915459
0.888579
0.864374
0.842359
0.822076
0.803146
0.785275
0.768244
0.751896
0.736113
0.720808
0.705919
0.691395
0.677197
0.663293
0.649656
0.636264
0.623097
0.610137
0.597368
0.584778
0.572353
0.560083
0.547957
0.535966
0.5241
0.512352
0.500716
0.489184
0.477749
0.466407
0.455151
0.443977
0.43288
0.421855
0.410899
0.400008
0.389177
0.378404
0.367686
0.357019
0.346401
0.335828
0.3253
0.314812
0.304363
0.293952
0.283575
0.273231
0.262918
0.252635
0.24238
0.232151
0.221947
0.211767
0.20161
0.191474
0.181358
0.171261
0.161182
0.15112
0.141075
0.131044
0.121029
0.111027
0.101038
0.0910609
0.081096
0.0711421
0.0611987
0.0512654
0.0413417
0.0314272
0.0215214
0.011624
0.00173471
-0.00814684
-0.0180209
-0.0278877
-0.0377476
-0.0476008
-0.0574477
-0.0672884
-0.0771232
-0.0869525
-0.0967766
-0.106596
-0.11641
-0.126221
-0.136027
-0.14583
-0.155629
-0.165424
-0.175212
0.175212
1.10996
1.10996
1.08694
1.05228
1.01523
0.979374
0.946191
0.916148
0.889156
0.864839
0.842724
0.82236
0.803368
0.785451
0.768387
0.752014
0.736212
0.720893
0.705992
0.691459
0.677254
0.663344
0.649702
0.636305
0.623134
0.61017
0.597399
0.584806
0.572379
0.560106
0.547978
0.535985
0.524118
0.512369
0.500732
0.489198
0.477762
0.466419
0.455163
0.443988
0.43289
0.421864
0.410908
0.400016
0.389185
0.378411
0.367693
0.357025
0.346407
0.335834
0.325305
0.314817
0.304368
0.293956
0.283579
0.273235
0.262922
0.252638
0.242383
0.232154
0.22195
0.21177
0.201612
0.191476
0.18136
0.171263
0.161184
0.151122
0.141076
0.131046
0.12103
0.111028
0.101039
0.0910623
0.0810972
0.0711433
0.0611999
0.0512665
0.0413428
0.0314282
0.0215223
0.0116249
0.00173558
-0.008146
-0.0180201
-0.027887
-0.0377469
-0.0476002
-0.057447
-0.0672878
-0.0771227
-0.086952
-0.0967761
-0.106595
-0.11641
-0.12622
-0.136027
-0.145829
-0.155628
-0.165423
-0.175206
0.175206
1.10826
1.10826
1.0864
1.05229
1.01544
0.979648
0.946464
0.916394
0.889363
0.865006
0.842856
0.822464
0.803451
0.785518
0.768442
0.75206
0.736251
0.720926
0.706022
0.691485
0.677277
0.663365
0.649721
0.636322
0.623149
0.610184
0.597412
0.584818
0.57239
0.560116
0.547988
0.535994
0.524126
0.512377
0.500739
0.489204
0.477768
0.466425
0.455168
0.443992
0.432894
0.421869
0.410912
0.400019
0.389188
0.378414
0.367696
0.357028
0.346409
0.335836
0.325307
0.314819
0.30437
0.293958
0.283581
0.273236
0.262923
0.25264
0.242384
0.232155
0.221951
0.211771
0.201614
0.191477
0.181361
0.171264
0.161185
0.151123
0.141077
0.131047
0.121031
0.111029
0.10104
0.0910629
0.0810978
0.0711438
0.0612004
0.051267
0.0413433
0.0314286
0.0215228
0.0116253
0.00173597
-0.00814563
-0.0180197
-0.0278866
-0.0377466
-0.0475998
-0.0574467
-0.0672875
-0.0771224
-0.0869518
-0.0967759
-0.106595
-0.11641
-0.12622
-0.136026
-0.145829
-0.155628
-0.165422
-0.175203
0.175203
1.10996
1.10996
1.08694
1.05227
1.01523
0.979374
0.946191
0.916148
0.889156
0.864839
0.842724
0.82236
0.803368
0.785451
0.768387
0.752014
0.736212
0.720893
0.705992
0.69146
0.677254
0.663344
0.649702
0.636305
0.623134
0.61017
0.597399
0.584806
0.572379
0.560106
0.547978
0.535985
0.524118
0.512369
0.500732
0.489198
0.477763
0.466419
0.455162
0.443988
0.43289
0.421865
0.410908
0.400016
0.389185
0.378411
0.367693
0.357025
0.346407
0.335834
0.325305
0.314817
0.304368
0.293956
0.283579
0.273235
0.262922
0.252638
0.242383
0.232154
0.22195
0.21177
0.201612
0.191476
0.18136
0.171263
0.161184
0.151122
0.141076
0.131046
0.12103
0.111028
0.101039
0.0910623
0.0810972
0.0711433
0.0611999
0.0512665
0.0413428
0.0314282
0.0215223
0.0116249
0.00173558
-0.008146
-0.0180201
-0.027887
-0.0377469
-0.0476002
-0.057447
-0.0672878
-0.0771227
-0.086952
-0.0967761
-0.106595
-0.11641
-0.12622
-0.136027
-0.145829
-0.155628
-0.165423
-0.175206
0.175206
1.11528
1.11528
1.08857
1.05226
1.01464
0.978608
0.945421
0.915459
0.888579
0.864375
0.842359
0.822076
0.803146
0.785275
0.768245
0.751896
0.736113
0.720808
0.705919
0.691395
0.677197
0.663293
0.649656
0.636264
0.623097
0.610137
0.597368
0.584778
0.572353
0.560083
0.547957
0.535965
0.5241
0.512353
0.500716
0.489184
0.477749
0.466407
0.455151
0.443977
0.43288
0.421855
0.410899
0.400008
0.389177
0.378404
0.367686
0.357019
0.346401
0.335829
0.3253
0.314812
0.304363
0.293952
0.283575
0.273231
0.262918
0.252635
0.24238
0.232151
0.221947
0.211767
0.20161
0.191474
0.181358
0.171261
0.161182
0.15112
0.141075
0.131044
0.121029
0.111027
0.101038
0.0910609
0.0810959
0.0711421
0.0611987
0.0512654
0.0413417
0.0314272
0.0215214
0.011624
0.0017347
-0.00814683
-0.0180209
-0.0278877
-0.0377476
-0.0476008
-0.0574477
-0.0672884
-0.0771232
-0.0869525
-0.0967766
-0.106596
-0.11641
-0.126221
-0.136027
-0.14583
-0.155629
-0.165424
-0.175212
0.175212
1.12485
1.12485
1.09106
1.05215
1.01368
0.977413
0.944245
0.914422
0.887726
0.863702
0.841842
0.821681
0.802843
0.78504
0.768059
0.751747
0.73599
0.720705
0.705831
0.691319
0.677131
0.663235
0.649605
0.636218
0.623056
0.610099
0.597335
0.584748
0.572326
0.560058
0.547934
0.535944
0.52408
0.512335
0.5007
0.489168
0.477735
0.466394
0.455139
0.443966
0.432869
0.421845
0.41089
0.399999
0.389169
0.378397
0.367679
0.357012
0.346395
0.335823
0.325294
0.314807
0.304359
0.293947
0.283571
0.273227
0.262914
0.252631
0.242376
0.232148
0.221944
0.211765
0.201607
0.191471
0.181355
0.171259
0.16118
0.151118
0.141073
0.131043
0.121027
0.111025
0.101036
0.0910595
0.0810946
0.0711408
0.0611976
0.0512643
0.0413407
0.0314262
0.0215204
0.0116231
0.00173385
-0.00814763
-0.0180216
-0.0278884
-0.0377483
-0.0476015
-0.0574482
-0.0672889
-0.0771237
-0.086953
-0.096777
-0.106596
-0.116411
-0.126221
-0.136027
-0.14583
-0.155629
-0.165426
-0.175217
0.175217
1.13983
1.13983
1.09394
1.05192
1.01257
0.976089
0.942983
0.913344
0.886864
0.863043
0.841349
0.821316
0.802572
0.784835
0.767901
0.751622
0.735888
0.720621
0.70576
0.691258
0.677078
0.663188
0.649563
0.636181
0.623022
0.610069
0.597307
0.584723
0.572303
0.560037
0.547915
0.535927
0.524065
0.51232
0.500686
0.489156
0.477724
0.466383
0.455129
0.443956
0.432861
0.421837
0.410882
0.399992
0.389162
0.378391
0.367673
0.357007
0.346389
0.335818
0.32529
0.314803
0.304355
0.293943
0.283567
0.273223
0.262911
0.252628
0.242373
0.232145
0.221942
0.211762
0.201605
0.191469
0.181353
0.171257
0.161178
0.151117
0.141071
0.131041
0.121026
0.111024
0.101035
0.0910583
0.0810935
0.0711397
0.0611965
0.0512634
0.0413398
0.0314253
0.0215197
0.0116224
0.00173318
-0.00814826
-0.0180222
-0.0278889
-0.0377487
-0.0476019
-0.0574486
-0.0672892
-0.077124
-0.0869532
-0.0967772
-0.106596
-0.116411
-0.126221
-0.136027
-0.14583
-0.155629
-0.165426
-0.17522
0.17522
1.16077
1.16077
1.09593
1.05169
1.01187
0.975293
0.942241
0.912713
0.886357
0.862648
0.841046
0.821083
0.80239
0.78469
0.767784
0.751524
0.735806
0.72055
0.705698
0.691203
0.677028
0.663144
0.649523
0.636145
0.622989
0.610039
0.597279
0.584697
0.572279
0.560015
0.547894
0.535908
0.524047
0.512303
0.50067
0.489141
0.47771
0.46637
0.455117
0.443945
0.43285
0.421827
0.410873
0.399983
0.389154
0.378383
0.367666
0.357
0.346383
0.335812
0.325284
0.314797
0.30435
0.293939
0.283562
0.273219
0.262907
0.252624
0.24237
0.232142
0.221938
0.211759
0.201602
0.191466
0.181351
0.171254
0.161176
0.151114
0.141069
0.131039
0.121024
0.111022
0.101033
0.0910567
0.081092
0.0711383
0.0611952
0.0512621
0.0413386
0.0314242
0.0215186
0.0116214
0.00173229
-0.00814907
-0.0180229
-0.0278896
-0.0377494
-0.0476024
-0.0574491
-0.0672896
-0.0771244
-0.0869535
-0.0967775
-0.106597
-0.116411
-0.126221
-0.136027
-0.14583
-0.15563
-0.165427
-0.175221
0.175221
1.16077
1.16077
1.09593
1.05169
1.01187
0.975293
0.942241
0.912713
0.886357
0.862648
0.841046
0.821083
0.80239
0.78469
0.767784
0.751524
0.735806
0.72055
0.705698
0.691203
0.677028
0.663144
0.649523
0.636145
0.622989
0.610039
0.597279
0.584697
0.572279
0.560015
0.547894
0.535908
0.524047
0.512303
0.50067
0.489141
0.47771
0.46637
0.455117
0.443945
0.43285
0.421827
0.410873
0.399983
0.389154
0.378383
0.367666
0.357
0.346383
0.335812
0.325284
0.314797
0.30435
0.293939
0.283562
0.273219
0.262907
0.252624
0.24237
0.232142
0.221938
0.211759
0.201602
0.191466
0.181351
0.171254
0.161176
0.151114
0.141069
0.131039
0.121024
0.111022
0.101033
0.0910567
0.081092
0.0711383
0.0611952
0.0512621
0.0413386
0.0314242
0.0215186
0.0116214
0.00173229
-0.00814907
-0.0180229
-0.0278896
-0.0377494
-0.0476024
-0.0574491
-0.0672896
-0.0771244
-0.0869535
-0.0967775
-0.106597
-0.116411
-0.126221
-0.136027
-0.14583
-0.15563
-0.165427
-0.175221
0.175221
