# vtk DataFile Version 2.0
FlowField
ASCII
DATASET STRUCTURED_GRID
DIMENSIONS 102 1 12 
POINTS 1224 double
0 0 0
0.4 0 0
0.8 0 0
1.2 0 0
1.6 0 0
2 0 0
2.4 0 0
2.8 0 0
3.2 0 0
3.6 0 0
4 0 0
4.4 0 0
4.8 0 0
5.2 0 0
5.6 0 0
6 0 0
6.4 0 0
6.8 0 0
7.2 0 0
7.6 0 0
8 0 0
8.4 0 0
8.8 0 0
9.2 0 0
9.6 0 0
10 0 0
10.4 0 0
10.8 0 0
11.2 0 0
11.6 0 0
12 0 0
12.4 0 0
12.8 0 0
13.2 0 0
13.6 0 0
14 0 0
14.4 0 0
14.8 0 0
15.2 0 0
15.6 0 0
16 0 0
16.4 0 0
16.8 0 0
17.2 0 0
17.6 0 0
18 0 0
18.4 0 0
18.8 0 0
19.2 0 0
19.6 0 0
20 0 0
20.4 0 0
20.8 0 0
21.2 0 0
21.6 0 0
22 0 0
22.4 0 0
22.8 0 0
23.2 0 0
23.6 0 0
24 0 0
24.4 0 0
24.8 0 0
25.2 0 0
25.6 0 0
26 0 0
26.4 0 0
26.8 0 0
27.2 0 0
27.6 0 0
28 0 0
28.4 0 0
28.8 0 0
29.2 0 0
29.6 0 0
30 0 0
30.4 0 0
30.8 0 0
31.2 0 0
31.6 0 0
32 0 0
32.4 0 0
32.8 0 0
33.2 0 0
33.6 0 0
34 0 0
34.4 0 0
34.8 0 0
35.2 0 0
35.6 0 0
36 0 0
36.4 0 0
36.8 0 0
37.2 0 0
37.6 0 0
38 0 0
38.4 0 0
38.8 0 0
39.2 0 0
39.6 0 0
40 0 0
40.4 0 0
0 0.1 0
0.4 0.1 0
0.8 0.1 0
1.2 0.1 0
1.6 0.1 0
2 0.1 0
2.4 0.1 0
2.8 0.1 0
3.2 0.1 0
3.6 0.1 0
4 0.1 0
4.4 0.1 0
4.8 0.1 0
5.2 0.1 0
5.6 0.1 0
6 0.1 0
6.4 0.1 0
6.8 0.1 0
7.2 0.1 0
7.6 0.1 0
8 0.1 0
8.4 0.1 0
8.8 0.1 0
9.2 0.1 0
9.6 0.1 0
10 0.1 0
10.4 0.1 0
10.8 0.1 0
11.2 0.1 0
11.6 0.1 0
12 0.1 0
12.4 0.1 0
12.8 0.1 0
13.2 0.1 0
13.6 0.1 0
14 0.1 0
14.4 0.1 0
14.8 0.1 0
15.2 0.1 0
15.6 0.1 0
16 0.1 0
16.4 0.1 0
16.8 0.1 0
17.2 0.1 0
17.6 0.1 0
18 0.1 0
18.4 0.1 0
18.8 0.1 0
19.2 0.1 0
19.6 0.1 0
20 0.1 0
20.4 0.1 0
20.8 0.1 0
21.2 0.1 0
21.6 0.1 0
22 0.1 0
22.4 0.1 0
22.8 0.1 0
23.2 0.1 0
23.6 0.1 0
24 0.1 0
24.4 0.1 0
24.8 0.1 0
25.2 0.1 0
25.6 0.1 0
26 0.1 0
26.4 0.1 0
26.8 0.1 0
27.2 0.1 0
27.6 0.1 0
28 0.1 0
28.4 0.1 0
28.8 0.1 0
29.2 0.1 0
29.6 0.1 0
30 0.1 0
30.4 0.1 0
30.8 0.1 0
31.2 0.1 0
31.6 0.1 0
32 0.1 0
32.4 0.1 0
32.8 0.1 0
33.2 0.1 0
33.6 0.1 0
34 0.1 0
34.4 0.1 0
34.8 0.1 0
35.2 0.1 0
35.6 0.1 0
36 0.1 0
36.4 0.1 0
36.8 0.1 0
37.2 0.1 0
37.6 0.1 0
38 0.1 0
38.4 0.1 0
38.8 0.1 0
39.2 0.1 0
39.6 0.1 0
40 0.1 0
40.4 0.1 0
0 0.2 0
0.4 0.2 0
0.8 0.2 0
1.2 0.2 0
1.6 0.2 0
2 0.2 0
2.4 0.2 0
2.8 0.2 0
3.2 0.2 0
3.6 0.2 0
4 0.2 0
4.4 0.2 0
4.8 0.2 0
5.2 0.2 0
5.6 0.2 0
6 0.2 0
6.4 0.2 0
6.8 0.2 0
7.2 0.2 0
7.6 0.2 0
8 0.2 0
8.4 0.2 0
8.8 0.2 0
9.2 0.2 0
9.6 0.2 0
10 0.2 0
10.4 0.2 0
10.8 0.2 0
11.2 0.2 0
11.6 0.2 0
12 0.2 0
12.4 0.2 0
12.8 0.2 0
13.2 0.2 0
13.6 0.2 0
14 0.2 0
14.4 0.2 0
14.8 0.2 0
15.2 0.2 0
15.6 0.2 0
16 0.2 0
16.4 0.2 0
16.8 0.2 0
17.2 0.2 0
17.6 0.2 0
18 0.2 0
18.4 0.2 0
18.8 0.2 0
19.2 0.2 0
19.6 0.2 0
20 0.2 0
20.4 0.2 0
20.8 0.2 0
21.2 0.2 0
21.6 0.2 0
22 0.2 0
22.4 0.2 0
22.8 0.2 0
23.2 0.2 0
23.6 0.2 0
24 0.2 0
24.4 0.2 0
24.8 0.2 0
25.2 0.2 0
25.6 0.2 0
26 0.2 0
26.4 0.2 0
26.8 0.2 0
27.2 0.2 0
27.6 0.2 0
28 0.2 0
28.4 0.2 0
28.8 0.2 0
29.2 0.2 0
29.6 0.2 0
30 0.2 0
30.4 0.2 0
30.8 0.2 0
31.2 0.2 0
31.6 0.2 0
32 0.2 0
32.4 0.2 0
32.8 0.2 0
33.2 0.2 0
33.6 0.2 0
34 0.2 0
34.4 0.2 0
34.8 0.2 0
35.2 0.2 0
35.6 0.2 0
36 0.2 0
36.4 0.2 0
36.8 0.2 0
37.2 0.2 0
37.6 0.2 0
38 0.2 0
38.4 0.2 0
38.8 0.2 0
39.2 0.2 0
39.6 0.2 0
40 0.2 0
40.4 0.2 0
0 0.3 0
0.4 0.3 0
0.8 0.3 0
1.2 0.3 0
1.6 0.3 0
2 0.3 0
2.4 0.3 0
2.8 0.3 0
3.2 0.3 0
3.6 0.3 0
4 0.3 0
4.4 0.3 0
4.8 0.3 0
5.2 0.3 0
5.6 0.3 0
6 0.3 0
6.4 0.3 0
6.8 0.3 0
7.2 0.3 0
7.6 0.3 0
8 0.3 0
8.4 0.3 0
8.8 0.3 0
9.2 0.3 0
9.6 0.3 0
10 0.3 0
10.4 0.3 0
10.8 0.3 0
11.2 0.3 0
11.6 0.3 0
12 0.3 0
12.4 0.3 0
12.8 0.3 0
13.2 0.3 0
13.6 0.3 0
14 0.3 0
14.4 0.3 0
14.8 0.3 0
15.2 0.3 0
15.6 0.3 0
16 0.3 0
16.4 0.3 0
16.8 0.3 0
17.2 0.3 0
17.6 0.3 0
18 0.3 0
18.4 0.3 0
18.8 0.3 0
19.2 0.3 0
19.6 0.3 0
20 0.3 0
20.4 0.3 0
20.8 0.3 0
21.2 0.3 0
21.6 0.3 0
22 0.3 0
22.4 0.3 0
22.8 0.3 0
23.2 0.3 0
23.6 0.3 0
24 0.3 0
24.4 0.3 0
24.8 0.3 0
25.2 0.3 0
25.6 0.3 0
26 0.3 0
26.4 0.3 0
26.8 0.3 0
27.2 0.3 0
27.6 0.3 0
28 0.3 0
28.4 0.3 0
28.8 0.3 0
29.2 0.3 0
29.6 0.3 0
30 0.3 0
30.4 0.3 0
30.8 0.3 0
31.2 0.3 0
31.6 0.3 0
32 0.3 0
32.4 0.3 0
32.8 0.3 0
33.2 0.3 0
33.6 0.3 0
34 0.3 0
34.4 0.3 0
34.8 0.3 0
35.2 0.3 0
35.6 0.3 0
36 0.3 0
36.4 0.3 0
36.8 0.3 0
37.2 0.3 0
37.6 0.3 0
38 0.3 0
38.4 0.3 0
38.8 0.3 0
39.2 0.3 0
39.6 0.3 0
40 0.3 0
40.4 0.3 0
0 0.4 0
0.4 0.4 0
0.8 0.4 0
1.2 0.4 0
1.6 0.4 0
2 0.4 0
2.4 0.4 0
2.8 0.4 0
3.2 0.4 0
3.6 0.4 0
4 0.4 0
4.4 0.4 0
4.8 0.4 0
5.2 0.4 0
5.6 0.4 0
6 0.4 0
6.4 0.4 0
6.8 0.4 0
7.2 0.4 0
7.6 0.4 0
8 0.4 0
8.4 0.4 0
8.8 0.4 0
9.2 0.4 0
9.6 0.4 0
10 0.4 0
10.4 0.4 0
10.8 0.4 0
11.2 0.4 0
11.6 0.4 0
12 0.4 0
12.4 0.4 0
12.8 0.4 0
13.2 0.4 0
13.6 0.4 0
14 0.4 0
14.4 0.4 0
14.8 0.4 0
15.2 0.4 0
15.6 0.4 0
16 0.4 0
16.4 0.4 0
16.8 0.4 0
17.2 0.4 0
17.6 0.4 0
18 0.4 0
18.4 0.4 0
18.8 0.4 0
19.2 0.4 0
19.6 0.4 0
20 0.4 0
20.4 0.4 0
20.8 0.4 0
21.2 0.4 0
21.6 0.4 0
22 0.4 0
22.4 0.4 0
22.8 0.4 0
23.2 0.4 0
23.6 0.4 0
24 0.4 0
24.4 0.4 0
24.8 0.4 0
25.2 0.4 0
25.6 0.4 0
26 0.4 0
26.4 0.4 0
26.8 0.4 0
27.2 0.4 0
27.6 0.4 0
28 0.4 0
28.4 0.4 0
28.8 0.4 0
29.2 0.4 0
29.6 0.4 0
30 0.4 0
30.4 0.4 0
30.8 0.4 0
31.2 0.4 0
31.6 0.4 0
32 0.4 0
32.4 0.4 0
32.8 0.4 0
33.2 0.4 0
33.6 0.4 0
34 0.4 0
34.4 0.4 0
34.8 0.4 0
35.2 0.4 0
35.6 0.4 0
36 0.4 0
36.4 0.4 0
36.8 0.4 0
37.2 0.4 0
37.6 0.4 0
38 0.4 0
38.4 0.4 0
38.8 0.4 0
39.2 0.4 0
39.6 0.4 0
40 0.4 0
40.4 0.4 0
0 0.5 0
0.4 0.5 0
0.8 0.5 0
1.2 0.5 0
1.6 0.5 0
2 0.5 0
2.4 0.5 0
2.8 0.5 0
3.2 0.5 0
3.6 0.5 0
4 0.5 0
4.4 0.5 0
4.8 0.5 0
5.2 0.5 0
5.6 0.5 0
6 0.5 0
6.4 0.5 0
6.8 0.5 0
7.2 0.5 0
7.6 0.5 0
8 0.5 0
8.4 0.5 0
8.8 0.5 0
9.2 0.5 0
9.6 0.5 0
10 0.5 0
10.4 0.5 0
10.8 0.5 0
11.2 0.5 0
11.6 0.5 0
12 0.5 0
12.4 0.5 0
12.8 0.5 0
13.2 0.5 0
13.6 0.5 0
14 0.5 0
14.4 0.5 0
14.8 0.5 0
15.2 0.5 0
15.6 0.5 0
16 0.5 0
16.4 0.5 0
16.8 0.5 0
17.2 0.5 0
17.6 0.5 0
18 0.5 0
18.4 0.5 0
18.8 0.5 0
19.2 0.5 0
19.6 0.5 0
20 0.5 0
20.4 0.5 0
20.8 0.5 0
21.2 0.5 0
21.6 0.5 0
22 0.5 0
22.4 0.5 0
22.8 0.5 0
23.2 0.5 0
23.6 0.5 0
24 0.5 0
24.4 0.5 0
24.8 0.5 0
25.2 0.5 0
25.6 0.5 0
26 0.5 0
26.4 0.5 0
26.8 0.5 0
27.2 0.5 0
27.6 0.5 0
28 0.5 0
28.4 0.5 0
28.8 0.5 0
29.2 0.5 0
29.6 0.5 0
30 0.5 0
30.4 0.5 0
30.8 0.5 0
31.2 0.5 0
31.6 0.5 0
32 0.5 0
32.4 0.5 0
32.8 0.5 0
33.2 0.5 0
33.6 0.5 0
34 0.5 0
34.4 0.5 0
34.8 0.5 0
35.2 0.5 0
35.6 0.5 0
36 0.5 0
36.4 0.5 0
36.8 0.5 0
37.2 0.5 0
37.6 0.5 0
38 0.5 0
38.4 0.5 0
38.8 0.5 0
39.2 0.5 0
39.6 0.5 0
40 0.5 0
40.4 0.5 0
0 0.6 0
0.4 0.6 0
0.8 0.6 0
1.2 0.6 0
1.6 0.6 0
2 0.6 0
2.4 0.6 0
2.8 0.6 0
3.2 0.6 0
3.6 0.6 0
4 0.6 0
4.4 0.6 0
4.8 0.6 0
5.2 0.6 0
5.6 0.6 0
6 0.6 0
6.4 0.6 0
6.8 0.6 0
7.2 0.6 0
7.6 0.6 0
8 0.6 0
8.4 0.6 0
8.8 0.6 0
9.2 0.6 0
9.6 0.6 0
10 0.6 0
10.4 0.6 0
10.8 0.6 0
11.2 0.6 0
11.6 0.6 0
12 0.6 0
12.4 0.6 0
12.8 0.6 0
13.2 0.6 0
13.6 0.6 0
14 0.6 0
14.4 0.6 0
14.8 0.6 0
15.2 0.6 0
15.6 0.6 0
16 0.6 0
16.4 0.6 0
16.8 0.6 0
17.2 0.6 0
17.6 0.6 0
18 0.6 0
18.4 0.6 0
18.8 0.6 0
19.2 0.6 0
19.6 0.6 0
20 0.6 0
20.4 0.6 0
20.8 0.6 0
21.2 0.6 0
21.6 0.6 0
22 0.6 0
22.4 0.6 0
22.8 0.6 0
23.2 0.6 0
23.6 0.6 0
24 0.6 0
24.4 0.6 0
24.8 0.6 0
25.2 0.6 0
25.6 0.6 0
26 0.6 0
26.4 0.6 0
26.8 0.6 0
27.2 0.6 0
27.6 0.6 0
28 0.6 0
28.4 0.6 0
28.8 0.6 0
29.2 0.6 0
29.6 0.6 0
30 0.6 0
30.4 0.6 0
30.8 0.6 0
31.2 0.6 0
31.6 0.6 0
32 0.6 0
32.4 0.6 0
32.8 0.6 0
33.2 0.6 0
33.6 0.6 0
34 0.6 0
34.4 0.6 0
34.8 0.6 0
35.2 0.6 0
35.6 0.6 0
36 0.6 0
36.4 0.6 0
36.8 0.6 0
37.2 0.6 0
37.6 0.6 0
38 0.6 0
38.4 0.6 0
38.8 0.6 0
39.2 0.6 0
39.6 0.6 0
40 0.6 0
40.4 0.6 0
0 0.7 0
0.4 0.7 0
0.8 0.7 0
1.2 0.7 0
1.6 0.7 0
2 0.7 0
2.4 0.7 0
2.8 0.7 0
3.2 0.7 0
3.6 0.7 0
4 0.7 0
4.4 0.7 0
4.8 0.7 0
5.2 0.7 0
5.6 0.7 0
6 0.7 0
6.4 0.7 0
6.8 0.7 0
7.2 0.7 0
7.6 0.7 0
8 0.7 0
8.4 0.7 0
8.8 0.7 0
9.2 0.7 0
9.6 0.7 0
10 0.7 0
10.4 0.7 0
10.8 0.7 0
11.2 0.7 0
11.6 0.7 0
12 0.7 0
12.4 0.7 0
12.8 0.7 0
13.2 0.7 0
13.6 0.7 0
14 0.7 0
14.4 0.7 0
14.8 0.7 0
15.2 0.7 0
15.6 0.7 0
16 0.7 0
16.4 0.7 0
16.8 0.7 0
17.2 0.7 0
17.6 0.7 0
18 0.7 0
18.4 0.7 0
18.8 0.7 0
19.2 0.7 0
19.6 0.7 0
20 0.7 0
20.4 0.7 0
20.8 0.7 0
21.2 0.7 0
21.6 0.7 0
22 0.7 0
22.4 0.7 0
22.8 0.7 0
23.2 0.7 0
23.6 0.7 0
24 0.7 0
24.4 0.7 0
24.8 0.7 0
25.2 0.7 0
25.6 0.7 0
26 0.7 0
26.4 0.7 0
26.8 0.7 0
27.2 0.7 0
27.6 0.7 0
28 0.7 0
28.4 0.7 0
28.8 0.7 0
29.2 0.7 0
29.6 0.7 0
30 0.7 0
30.4 0.7 0
30.8 0.7 0
31.2 0.7 0
31.6 0.7 0
32 0.7 0
32.4 0.7 0
32.8 0.7 0
33.2 0.7 0
33.6 0.7 0
34 0.7 0
34.4 0.7 0
34.8 0.7 0
35.2 0.7 0
35.6 0.7 0
36 0.7 0
36.4 0.7 0
36.8 0.7 0
37.2 0.7 0
37.6 0.7 0
38 0.7 0
38.4 0.7 0
38.8 0.7 0
39.2 0.7 0
39.6 0.7 0
40 0.7 0
40.4 0.7 0
0 0.8 0
0.4 0.8 0
0.8 0.8 0
1.2 0.8 0
1.6 0.8 0
2 0.8 0
2.4 0.8 0
2.8 0.8 0
3.2 0.8 0
3.6 0.8 0
4 0.8 0
4.4 0.8 0
4.8 0.8 0
5.2 0.8 0
5.6 0.8 0
6 0.8 0
6.4 0.8 0
6.8 0.8 0
7.2 0.8 0
7.6 0.8 0
8 0.8 0
8.4 0.8 0
8.8 0.8 0
9.2 0.8 0
9.6 0.8 0
10 0.8 0
10.4 0.8 0
10.8 0.8 0
11.2 0.8 0
11.6 0.8 0
12 0.8 0
12.4 0.8 0
12.8 0.8 0
13.2 0.8 0
13.6 0.8 0
14 0.8 0
14.4 0.8 0
14.8 0.8 0
15.2 0.8 0
15.6 0.8 0
16 0.8 0
16.4 0.8 0
16.8 0.8 0
17.2 0.8 0
17.6 0.8 0
18 0.8 0
18.4 0.8 0
18.8 0.8 0
19.2 0.8 0
19.6 0.8 0
20 0.8 0
20.4 0.8 0
20.8 0.8 0
21.2 0.8 0
21.6 0.8 0
22 0.8 0
22.4 0.8 0
22.8 0.8 0
23.2 0.8 0
23.6 0.8 0
24 0.8 0
24.4 0.8 0
24.8 0.8 0
25.2 0.8 0
25.6 0.8 0
26 0.8 0
26.4 0.8 0
26.8 0.8 0
27.2 0.8 0
27.6 0.8 0
28 0.8 0
28.4 0.8 0
28.8 0.8 0
29.2 0.8 0
29.6 0.8 0
30 0.8 0
30.4 0.8 0
30.8 0.8 0
31.2 0.8 0
31.6 0.8 0
32 0.8 0
32.4 0.8 0
32.8 0.8 0
33.2 0.8 0
33.6 0.8 0
34 0.8 0
34.4 0.8 0
34.8 0.8 0
35.2 0.8 0
35.6 0.8 0
36 0.8 0
36.4 0.8 0
36.8 0.8 0
37.2 0.8 0
37.6 0.8 0
38 0.8 0
38.4 0.8 0
38.8 0.8 0
39.2 0.8 0
39.6 0.8 0
40 0.8 0
40.4 0.8 0
0 0.9 0
0.4 0.9 0
0.8 0.9 0
1.2 0.9 0
1.6 0.9 0
2 0.9 0
2.4 0.9 0
2.8 0.9 0
3.2 0.9 0
3.6 0.9 0
4 0.9 0
4.4 0.9 0
4.8 0.9 0
5.2 0.9 0
5.6 0.9 0
6 0.9 0
6.4 0.9 0
6.8 0.9 0
7.2 0.9 0
7.6 0.9 0
8 0.9 0
8.4 0.9 0
8.8 0.9 0
9.2 0.9 0
9.6 0.9 0
10 0.9 0
10.4 0.9 0
10.8 0.9 0
11.2 0.9 0
11.6 0.9 0
12 0.9 0
12.4 0.9 0
12.8 0.9 0
13.2 0.9 0
13.6 0.9 0
14 0.9 0
14.4 0.9 0
14.8 0.9 0
15.2 0.9 0
15.6 0.9 0
16 0.9 0
16.4 0.9 0
16.8 0.9 0
17.2 0.9 0
17.6 0.9 0
18 0.9 0
18.4 0.9 0
18.8 0.9 0
19.2 0.9 0
19.6 0.9 0
20 0.9 0
20.4 0.9 0
20.8 0.9 0
21.2 0.9 0
21.6 0.9 0
22 0.9 0
22.4 0.9 0
22.8 0.9 0
23.2 0.9 0
23.6 0.9 0
24 0.9 0
24.4 0.9 0
24.8 0.9 0
25.2 0.9 0
25.6 0.9 0
26 0.9 0
26.4 0.9 0
26.8 0.9 0
27.2 0.9 0
27.6 0.9 0
28 0.9 0
28.4 0.9 0
28.8 0.9 0
29.2 0.9 0
29.6 0.9 0
30 0.9 0
30.4 0.9 0
30.8 0.9 0
31.2 0.9 0
31.6 0.9 0
32 0.9 0
32.4 0.9 0
32.8 0.9 0
33.2 0.9 0
33.6 0.9 0
34 0.9 0
34.4 0.9 0
34.8 0.9 0
35.2 0.9 0
35.6 0.9 0
36 0.9 0
36.4 0.9 0
36.8 0.9 0
37.2 0.9 0
37.6 0.9 0
38 0.9 0
38.4 0.9 0
38.8 0.9 0
39.2 0.9 0
39.6 0.9 0
40 0.9 0
40.4 0.9 0
0 1 0
0.4 1 0
0.8 1 0
1.2 1 0
1.6 1 0
2 1 0
2.4 1 0
2.8 1 0
3.2 1 0
3.6 1 0
4 1 0
4.4 1 0
4.8 1 0
5.2 1 0
5.6 1 0
6 1 0
6.4 1 0
6.8 1 0
7.2 1 0
7.6 1 0
8 1 0
8.4 1 0
8.8 1 0
9.2 1 0
9.6 1 0
10 1 0
10.4 1 0
10.8 1 0
11.2 1 0
11.6 1 0
12 1 0
12.4 1 0
12.8 1 0
13.2 1 0
13.6 1 0
14 1 0
14.4 1 0
14.8 1 0
15.2 1 0
15.6 1 0
16 1 0
16.4 1 0
16.8 1 0
17.2 1 0
17.6 1 0
18 1 0
18.4 1 0
18.8 1 0
19.2 1 0
19.6 1 0
20 1 0
20.4 1 0
20.8 1 0
21.2 1 0
21.6 1 0
22 1 0
22.4 1 0
22.8 1 0
23.2 1 0
23.6 1 0
24 1 0
24.4 1 0
24.8 1 0
25.2 1 0
25.6 1 0
26 1 0
26.4 1 0
26.8 1 0
27.2 1 0
27.6 1 0
28 1 0
28.4 1 0
28.8 1 0
29.2 1 0
29.6 1 0
30 1 0
30.4 1 0
30.8 1 0
31.2 1 0
31.6 1 0
32 1 0
32.4 1 0
32.8 1 0
33.2 1 0
33.6 1 0
34 1 0
34.4 1 0
34.8 1 0
35.2 1 0
35.6 1 0
36 1 0
36.4 1 0
36.8 1 0
37.2 1 0
37.6 1 0
38 1 0
38.4 1 0
38.8 1 0
39.2 1 0
39.6 1 0
40 1 0
40.4 1 0
0 1.1 0
0.4 1.1 0
0.8 1.1 0
1.2 1.1 0
1.6 1.1 0
2 1.1 0
2.4 1.1 0
2.8 1.1 0
3.2 1.1 0
3.6 1.1 0
4 1.1 0
4.4 1.1 0
4.8 1.1 0
5.2 1.1 0
5.6 1.1 0
6 1.1 0
6.4 1.1 0
6.8 1.1 0
7.2 1.1 0
7.6 1.1 0
8 1.1 0
8.4 1.1 0
8.8 1.1 0
9.2 1.1 0
9.6 1.1 0
10 1.1 0
10.4 1.1 0
10.8 1.1 0
11.2 1.1 0
11.6 1.1 0
12 1.1 0
12.4 1.1 0
12.8 1.1 0
13.2 1.1 0
13.6 1.1 0
14 1.1 0
14.4 1.1 0
14.8 1.1 0
15.2 1.1 0
15.6 1.1 0
16 1.1 0
16.4 1.1 0
16.8 1.1 0
17.2 1.1 0
17.6 1.1 0
18 1.1 0
18.4 1.1 0
18.8 1.1 0
19.2 1.1 0
19.6 1.1 0
20 1.1 0
20.4 1.1 0
20.8 1.1 0
21.2 1.1 0
21.6 1.1 0
22 1.1 0
22.4 1.1 0
22.8 1.1 0
23.2 1.1 0
23.6 1.1 0
24 1.1 0
24.4 1.1 0
24.8 1.1 0
25.2 1.1 0
25.6 1.1 0
26 1.1 0
26.4 1.1 0
26.8 1.1 0
27.2 1.1 0
27.6 1.1 0
28 1.1 0
28.4 1.1 0
28.8 1.1 0
29.2 1.1 0
29.6 1.1 0
30 1.1 0
30.4 1.1 0
30.8 1.1 0
31.2 1.1 0
31.6 1.1 0
32 1.1 0
32.4 1.1 0
32.8 1.1 0
33.2 1.1 0
33.6 1.1 0
34 1.1 0
34.4 1.1 0
34.8 1.1 0
35.2 1.1 0
35.6 1.1 0
36 1.1 0
36.4 1.1 0
36.8 1.1 0
37.2 1.1 0
37.6 1.1 0
38 1.1 0
38.4 1.1 0
38.8 1.1 0
39.2 1.1 0
39.6 1.1 0
40 1.1 0
40.4 1.1 0

POINT_DATA 1224

SCALARS phi double
LOOKUP_TABLE default
0.911619
1.08838
1.18693
1.21817
1.20207
1.16371
1.12152
1.08383
1.05232
1.02601
1.00353
0.9836
0.965049
0.94659
0.926833
0.904451
0.878406
0.848106
0.813455
0.774802
0.732819
0.688369
0.642373
0.595722
0.54921
0.503502
0.45913
0.416489
0.375861
0.337428
0.301295
0.267507
0.236069
0.206959
0.180133
0.155542
0.133136
0.112866
0.0946821
0.0785265
0.0643324
0.0520169
0.0414784
0.0325951
0.0252268
0.0192182
0.0144046
0.0106184
0.00769586
0.00548262
0.00383864
0.00264104
0.00178547
0.00118604
0.00077415
0.000496533
0.00031297
0.000193879
0.000118055
7.06679e-05
4.15916e-05
2.40715e-05
1.37021e-05
7.67243e-06
4.22682e-06
2.29145e-06
1.22264e-06
6.42183e-07
3.32101e-07
1.69126e-07
8.48324e-08
4.19179e-08
2.0408e-08
9.79134e-09
4.6302e-09
2.15848e-09
9.92107e-10
4.49682e-10
2.01029e-10
8.86515e-11
3.85707e-11
1.65592e-11
7.01616e-12
2.93426e-12
1.21144e-12
4.93822e-13
1.98777e-13
7.90215e-14
3.10291e-14
1.20363e-14
4.6129e-15
1.74689e-15
6.53776e-16
2.41823e-16
8.8438e-17
3.1963e-17
1.14592e-17
4.04439e-18
1.47706e-18
5.05486e-19
2.36403e-19
2.36403e-19
0.911619
1.08838
1.18693
1.21817
1.20207
1.16371
1.12152
1.08383
1.05232
1.02601
1.00353
0.9836
0.965049
0.94659
0.926833
0.904451
0.878406
0.848106
0.813455
0.774802
0.732819
0.688369
0.642373
0.595722
0.54921
0.503502
0.45913
0.416489
0.375861
0.337428
0.301295
0.267507
0.236069
0.206959
0.180133
0.155542
0.133136
0.112866
0.0946821
0.0785265
0.0643324
0.0520169
0.0414784
0.0325951
0.0252268
0.0192182
0.0144046
0.0106184
0.00769586
0.00548262
0.00383864
0.00264104
0.00178547
0.00118604
0.00077415
0.000496533
0.00031297
0.000193879
0.000118055
7.06679e-05
4.15916e-05
2.40715e-05
1.37021e-05
7.67243e-06
4.22682e-06
2.29145e-06
1.22264e-06
6.42183e-07
3.32101e-07
1.69126e-07
8.48324e-08
4.19179e-08
2.0408e-08
9.79134e-09
4.6302e-09
2.15848e-09
9.92107e-10
4.49682e-10
2.01029e-10
8.86515e-11
3.85707e-11
1.65592e-11
7.01616e-12
2.93426e-12
1.21144e-12
4.93822e-13
1.98777e-13
7.90215e-14
3.10291e-14
1.20363e-14
4.6129e-15
1.74689e-15
6.53776e-16
2.41823e-16
8.8438e-17
3.1963e-17
1.14592e-17
4.04439e-18
1.47706e-18
5.05486e-19
2.36403e-19
2.36403e-19
1.00188
0.998125
1.02685
1.06105
1.08319
1.0888
1.08087
1.06447
1.04395
1.02217
1.00071
0.980277
0.960957
0.942387
0.92386
0.904475
0.883306
0.859578
0.832782
0.802732
0.769544
0.733584
0.695384
0.655565
0.614765
0.573594
0.532592
0.492222
0.452856
0.41478
0.378204
0.343268
0.310057
0.278614
0.248946
0.221045
0.194896
0.170487
0.147818
0.126901
0.107757
0.0904082
0.0748699
0.0611405
0.049192
0.0389643
0.0303639
0.023266
0.0175211
0.0129635
0.00942078
0.00672315
0.00471116
0.00324136
0.00218962
0.00145233
0.000945915
0.000605023
0.000380085
0.000234554
0.00014221
8.4726e-05
4.96119e-05
2.85575e-05
1.61624e-05
8.99558e-06
4.92471e-06
2.65245e-06
1.40579e-06
7.33307e-07
3.76558e-07
1.9039e-07
9.48007e-08
4.6496e-08
2.24667e-08
1.06971e-08
5.01967e-09
2.32191e-09
1.0589e-09
4.76186e-10
2.11196e-10
9.23967e-11
3.98803e-11
1.69848e-11
7.13891e-12
2.96168e-12
1.21295e-12
4.90471e-13
1.95843e-13
7.72307e-14
3.00828e-14
1.15757e-14
4.40095e-15
1.65329e-15
6.13895e-16
2.25233e-16
8.186e-17
2.93029e-17
1.06641e-17
3.67654e-18
1.58339e-18
1.58339e-18
1.01572
0.984281
0.963649
0.958795
0.96217
0.966524
0.967709
0.964361
0.956778
0.945952
0.932987
0.918827
0.904146
0.88932
0.874434
0.859316
0.843613
0.826874
0.808652
0.788581
0.766422
0.742091
0.715648
0.68728
0.657263
0.625928
0.593635
0.560738
0.527573
0.494437
0.461585
0.429222
0.397505
0.36654
0.336393
0.307103
0.278689
0.251173
0.224594
0.199022
0.174563
0.151363
0.12959
0.109423
0.0910265
0.0745324
0.0600186
0.0475002
0.0369262
0.0281849
0.0211157
0.0155239
0.0111982
0.00792538
0.00550315
0.00374926
0.00250646
0.00164441
0.00105892
0.000669401
0.000415497
0.000253276
0.000151654
8.92167e-05
5.15779e-05
2.93092e-05
1.63744e-05
8.99596e-06
4.86123e-06
2.58438e-06
1.352e-06
6.96145e-07
3.52873e-07
1.76126e-07
8.6577e-08
4.19224e-08
2.00004e-08
9.40296e-09
4.35718e-09
1.99041e-09
8.96506e-10
3.98212e-10
1.74462e-10
7.54029e-11
3.21547e-11
1.35314e-11
5.62014e-12
2.30424e-12
9.32713e-13
3.72797e-13
1.47151e-13
5.73693e-14
2.20945e-14
8.40674e-15
3.16086e-15
1.17427e-15
4.3159e-16
1.56486e-16
5.68072e-17
1.99003e-17
7.66499e-18
7.66499e-18
1.02404
0.975965
0.919364
0.876597
0.848753
0.831753
0.821182
0.813715
0.807274
0.800756
0.7937
0.786015
0.777787
0.769157
0.760238
0.751073
0.741612
0.731718
0.721193
0.709809
0.69734
0.683595
0.668435
0.651786
0.633641
0.614052
0.593121
0.570987
0.547813
0.523771
0.499032
0.473753
0.448069
0.422085
0.39587
0.369467
0.342899
0.316188
0.289372
0.262536
0.235823
0.209446
0.183687
0.158876
0.135366
0.113498
0.0935621
0.0757754
0.0602573
0.0470265
0.0360063
0.0270405
0.0199153
0.0143837
0.0101875
0.00707617
0.00482071
0.00322154
0.00211217
0.0013589
0.000858086
0.000531926
0.000323779
0.000193563
0.000113678
6.56021e-05
3.72088e-05
2.07475e-05
1.13758e-05
6.13472e-06
3.25465e-06
1.69906e-06
8.72989e-07
4.41567e-07
2.1992e-07
1.07872e-07
5.2121e-08
2.48123e-08
1.16401e-08
5.38226e-09
2.45342e-09
1.1027e-09
4.88766e-10
2.13686e-10
9.21631e-11
3.92208e-11
1.64711e-11
6.82726e-12
2.79353e-12
1.12852e-12
4.50172e-13
1.77347e-13
6.90086e-14
2.65263e-14
1.00743e-14
3.78033e-15
1.40241e-15
5.13633e-16
1.87021e-16
6.61512e-17
2.43376e-17
2.43376e-17
1.11553
0.884471
0.754942
0.682423
0.641439
0.61841
0.605773
0.599099
0.595721
0.594024
0.593049
0.592248
0.591333
0.590172
0.588715
0.586948
0.584857
0.582409
0.579541
0.57616
0.572149
0.567381
0.561723
0.555055
0.547275
0.538305
0.528096
0.516625
0.503895
0.489934
0.474781
0.458486
0.441097
0.42265
0.403167
0.382649
0.361089
0.33848
0.314842
0.290249
0.26485
0.238888
0.212703
0.186716
0.161403
0.137248
0.114704
0.0941462
0.075844
0.0599422
0.0464614
0.0353104
0.0263091
0.0192169
0.0137607
0.00966072
0.00665028
0.0044895
0.00297277
0.00193116
0.00123102
0.000770187
0.000473064
0.000285325
0.00016903
9.83788e-05
5.62676e-05
3.16331e-05
1.74848e-05
9.50421e-06
5.08175e-06
2.67334e-06
1.38401e-06
7.05283e-07
3.53854e-07
1.74829e-07
8.50794e-08
4.07891e-08
1.92691e-08
8.97142e-09
4.11741e-09
1.86309e-09
8.31317e-10
3.65848e-10
1.58822e-10
6.80252e-11
2.87508e-11
1.19928e-11
4.93794e-12
2.00723e-12
8.05633e-13
3.19322e-13
1.25007e-13
4.83404e-14
1.84683e-14
6.97117e-15
2.60099e-15
9.5818e-16
3.50415e-16
1.24531e-16
4.56442e-17
4.56442e-17
-0.101677
0.101677
0.204149
0.258515
0.29004
0.310502
0.325452
0.337536
0.348013
0.357476
0.366192
0.374278
0.381784
0.388736
0.395154
0.401054
0.406451
0.411352
0.41575
0.419621
0.422921
0.425588
0.427541
0.428688
0.428927
0.428156
0.426275
0.423194
0.418833
0.413128
0.406029
0.397498
0.387504
0.376016
0.363001
0.34842
0.332242
0.31445
0.295067
0.274179
0.251961
0.228692
0.20475
0.180603
0.156774
0.133797
0.112172
0.0923177
0.074545
0.0590346
0.0458378
0.0348891
0.0260293
0.0190341
0.0136433
0.00958662
0.00660428
0.00446142
0.00295592
0.00192121
0.00122524
0.000766885
0.000471207
0.000284298
0.000168471
9.8079e-05
5.61094e-05
3.15509e-05
1.74427e-05
9.483e-06
5.07122e-06
2.66819e-06
1.38152e-06
7.04101e-07
3.533e-07
1.74573e-07
8.49627e-08
4.07367e-08
1.92459e-08
8.96124e-09
4.11302e-09
1.86122e-09
8.30529e-10
3.65521e-10
1.58688e-10
6.79709e-11
2.87291e-11
1.19842e-11
4.9346e-12
2.00594e-12
8.05141e-13
3.19137e-13
1.24938e-13
4.83151e-14
1.84591e-14
6.96786e-15
2.59981e-15
9.57766e-16
3.5027e-16
1.24482e-16
4.56272e-17
4.56272e-17
-0.00930645
0.00930645
0.0399923
0.0692732
0.0943627
0.115578
0.133846
0.150008
0.164679
0.178277
0.191068
0.203216
0.214819
0.225933
0.236592
0.246812
0.256601
0.265957
0.274868
0.283308
0.291234
0.298589
0.305294
0.311255
0.316363
0.3205
0.323544
0.325374
0.325875
0.324946
0.322499
0.318458
0.312763
0.305363
0.296218
0.285302
0.272608
0.258167
0.242061
0.224446
0.205559
0.18573
0.165363
0.144926
0.124905
0.105773
0.0879481
0.0717605
0.0574327
0.0450719
0.0346761
0.0261503
0.0193296
0.0140048
0.00994643
0.0069254
0.00472798
0.00316545
0.00207881
0.00133938
0.000846851
0.000525564
0.000320234
0.000191619
0.000112629
6.50445e-05
3.69171e-05
2.05972e-05
1.12995e-05
6.09658e-06
3.23587e-06
1.68995e-06
8.68628e-07
4.3951e-07
2.18964e-07
1.07433e-07
5.19228e-08
2.47239e-08
1.16012e-08
5.36537e-09
2.44618e-09
1.09964e-09
4.87489e-10
2.1316e-10
9.1949e-11
3.91347e-11
1.6437e-11
6.81387e-12
2.78835e-12
1.12654e-12
4.49422e-13
1.77066e-13
6.89049e-14
2.64884e-14
1.00606e-14
3.77545e-15
1.40069e-15
5.13032e-16
1.86813e-16
6.60808e-17
2.43138e-17
2.43138e-17
-0.000483305
0.000483305
0.0062834
0.014825
0.024693
0.0352056
0.0460684
0.0571535
0.0683964
0.0797547
0.0911921
0.102673
0.114161
0.125619
0.137006
0.148282
0.159399
0.170301
0.180925
0.191192
0.201007
0.210262
0.218834
0.226589
0.233384
0.239076
0.243528
0.24661
0.24821
0.248238
0.246625
0.243326
0.238321
0.231612
0.22323
0.213228
0.201699
0.188777
0.174646
0.15955
0.143784
0.127692
0.111644
0.0960158
0.0811613
0.0673846
0.0549209
0.0439224
0.0344556
0.0265068
0.0199945
0.0147872
0.0107221
0.00762282
0.00531406
0.00363304
0.0024362
0.00160264
0.00103448
0.000655339
0.000407535
0.000248839
0.000149221
8.79032e-05
5.08798e-05
2.89439e-05
1.61862e-05
8.90041e-06
4.81344e-06
2.56084e-06
1.34057e-06
6.90676e-07
3.50293e-07
1.74926e-07
8.60267e-08
4.16735e-08
1.98894e-08
9.35409e-09
4.33596e-09
1.98131e-09
8.92659e-10
3.96606e-10
1.738e-10
7.51334e-11
3.20464e-11
1.34884e-11
5.60327e-12
2.2977e-12
9.30211e-13
3.71851e-13
1.46797e-13
5.72386e-14
2.20468e-14
8.3895e-15
3.1547e-15
1.17209e-15
4.3083e-16
1.56224e-16
5.6717e-17
1.987e-17
7.65449e-18
7.65449e-18
4.08321e-05
-4.08321e-05
0.000817245
0.00283838
0.00606915
0.0105077
0.0161103
0.0227913
0.0304364
0.0389185
0.04811
0.0578894
0.0681434
0.078766
0.089654
0.100702
0.111798
0.122817
0.133618
0.144048
0.153938
0.163113
0.171393
0.178603
0.184576
0.189166
0.192248
0.193727
0.193542
0.191669
0.188119
0.18294
0.176215
0.168062
0.158628
0.14809
0.136655
0.124556
0.11205
0.0994095
0.0869101
0.0748185
0.0633777
0.0527923
0.0432181
0.0347545
0.027443
0.0212711
0.0161802
0.0120766
0.00884357
0.00635355
0.00447832
0.00309704
0.00210161
0.00139953
0.000914741
0.000586913
0.000369731
0.000228728
0.000138983
8.29662e-05
4.8667e-05
2.80579e-05
1.59022e-05
8.86216e-06
4.85729e-06
2.61889e-06
1.38932e-06
7.25343e-07
3.72762e-07
1.88606e-07
9.3974e-08
4.61182e-08
2.22964e-08
1.06214e-08
4.98644e-09
2.30752e-09
1.05275e-09
4.73592e-10
2.10116e-10
9.19528e-11
3.97001e-11
1.69125e-11
7.11028e-12
2.95048e-12
1.20862e-12
4.88817e-13
1.95219e-13
7.69979e-14
2.99969e-14
1.15445e-14
4.38967e-15
1.64927e-15
6.12478e-16
2.24739e-16
8.16895e-17
2.92448e-17
1.06441e-17
3.66994e-18
1.58086e-18
1.58086e-18
2.20589e-05
-2.20589e-05
0.000114971
0.000803975
0.00239726
0.00512891
0.00909723
0.0142977
0.0206594
0.0280716
0.0364036
0.0455182
0.0552788
0.06555
0.0761929
0.0870581
0.0979809
0.108778
0.11925
0.129182
0.138358
0.14656
0.153585
0.159248
0.163396
0.165908
0.166707
0.165757
0.163073
0.158712
0.152779
0.145419
0.136815
0.127186
0.116768
0.105818
0.0946025
0.0833883
0.0724293
0.061956
0.0521648
0.0432094
0.0351956
0.0281796
0.0221701
0.0171343
0.0130058
0.00969401
0.00709447
0.00509751
0.0035959
0.00249045
0.00169351
0.00113077
0.00074145
0.000477489
0.000302051
0.000187716
0.000114629
6.87929e-05
4.05809e-05
2.35349e-05
1.34215e-05
7.52781e-06
4.1534e-06
2.25471e-06
1.20452e-06
6.33374e-07
3.27879e-07
1.67131e-07
8.39026e-08
4.14904e-08
2.02142e-08
9.70463e-09
4.59192e-09
2.1418e-09
9.84938e-10
4.46639e-10
1.99754e-10
8.8124e-11
3.83552e-11
1.64723e-11
6.98149e-12
2.92061e-12
1.20613e-12
4.9178e-13
1.98001e-13
7.87302e-14
3.0921e-14
1.19966e-14
4.59851e-15
1.74173e-15
6.51944e-16
2.4118e-16
8.82149e-17
3.18864e-17
1.14332e-17
4.03563e-18
1.47404e-18
5.04492e-19
2.35992e-19
2.35992e-19
2.20589e-05
-2.20589e-05
0.000114971
0.000803975
0.00239726
0.00512891
0.00909723
0.0142977
0.0206594
0.0280716
0.0364036
0.0455182
0.0552788
0.06555
0.0761929
0.0870581
0.0979809
0.108778
0.11925
0.129182
0.138358
0.14656
0.153585
0.159248
0.163396
0.165908
0.166707
0.165757
0.163073
0.158712
0.152779
0.145419
0.136815
0.127186
0.116768
0.105818
0.0946025
0.0833883
0.0724293
0.061956
0.0521648
0.0432094
0.0351956
0.0281796
0.0221701
0.0171343
0.0130058
0.00969401
0.00709447
0.00509751
0.0035959
0.00249045
0.00169351
0.00113077
0.00074145
0.000477489
0.000302051
0.000187716
0.000114629
6.87929e-05
4.05809e-05
2.35349e-05
1.34215e-05
7.52781e-06
4.1534e-06
2.25471e-06
1.20452e-06
6.33374e-07
3.27879e-07
1.67131e-07
8.39026e-08
4.14904e-08
2.02142e-08
9.70463e-09
4.59192e-09
2.1418e-09
9.84938e-10
4.46639e-10
1.99754e-10
8.8124e-11
3.83552e-11
1.64723e-11
6.98149e-12
2.92061e-12
1.20613e-12
4.9178e-13
1.98001e-13
7.87302e-14
3.0921e-14
1.19966e-14
4.59851e-15
1.74173e-15
6.51944e-16
2.4118e-16
8.82149e-17
3.18864e-17
1.14332e-17
4.03563e-18
1.47404e-18
5.04492e-19
2.35992e-19
2.35992e-19
