# vtk DataFile Version 2.0
FlowField
ASCII
DATASET STRUCTURED_GRID
DIMENSIONS 102 1 12 
POINTS 1224 double
0 0 0
0.4 0 0
0.8 0 0
1.2 0 0
1.6 0 0
2 0 0
2.4 0 0
2.8 0 0
3.2 0 0
3.6 0 0
4 0 0
4.4 0 0
4.8 0 0
5.2 0 0
5.6 0 0
6 0 0
6.4 0 0
6.8 0 0
7.2 0 0
7.6 0 0
8 0 0
8.4 0 0
8.8 0 0
9.2 0 0
9.6 0 0
10 0 0
10.4 0 0
10.8 0 0
11.2 0 0
11.6 0 0
12 0 0
12.4 0 0
12.8 0 0
13.2 0 0
13.6 0 0
14 0 0
14.4 0 0
14.8 0 0
15.2 0 0
15.6 0 0
16 0 0
16.4 0 0
16.8 0 0
17.2 0 0
17.6 0 0
18 0 0
18.4 0 0
18.8 0 0
19.2 0 0
19.6 0 0
20 0 0
20.4 0 0
20.8 0 0
21.2 0 0
21.6 0 0
22 0 0
22.4 0 0
22.8 0 0
23.2 0 0
23.6 0 0
24 0 0
24.4 0 0
24.8 0 0
25.2 0 0
25.6 0 0
26 0 0
26.4 0 0
26.8 0 0
27.2 0 0
27.6 0 0
28 0 0
28.4 0 0
28.8 0 0
29.2 0 0
29.6 0 0
30 0 0
30.4 0 0
30.8 0 0
31.2 0 0
31.6 0 0
32 0 0
32.4 0 0
32.8 0 0
33.2 0 0
33.6 0 0
34 0 0
34.4 0 0
34.8 0 0
35.2 0 0
35.6 0 0
36 0 0
36.4 0 0
36.8 0 0
37.2 0 0
37.6 0 0
38 0 0
38.4 0 0
38.8 0 0
39.2 0 0
39.6 0 0
40 0 0
40.4 0 0
0 0.1 0
0.4 0.1 0
0.8 0.1 0
1.2 0.1 0
1.6 0.1 0
2 0.1 0
2.4 0.1 0
2.8 0.1 0
3.2 0.1 0
3.6 0.1 0
4 0.1 0
4.4 0.1 0
4.8 0.1 0
5.2 0.1 0
5.6 0.1 0
6 0.1 0
6.4 0.1 0
6.8 0.1 0
7.2 0.1 0
7.6 0.1 0
8 0.1 0
8.4 0.1 0
8.8 0.1 0
9.2 0.1 0
9.6 0.1 0
10 0.1 0
10.4 0.1 0
10.8 0.1 0
11.2 0.1 0
11.6 0.1 0
12 0.1 0
12.4 0.1 0
12.8 0.1 0
13.2 0.1 0
13.6 0.1 0
14 0.1 0
14.4 0.1 0
14.8 0.1 0
15.2 0.1 0
15.6 0.1 0
16 0.1 0
16.4 0.1 0
16.8 0.1 0
17.2 0.1 0
17.6 0.1 0
18 0.1 0
18.4 0.1 0
18.8 0.1 0
19.2 0.1 0
19.6 0.1 0
20 0.1 0
20.4 0.1 0
20.8 0.1 0
21.2 0.1 0
21.6 0.1 0
22 0.1 0
22.4 0.1 0
22.8 0.1 0
23.2 0.1 0
23.6 0.1 0
24 0.1 0
24.4 0.1 0
24.8 0.1 0
25.2 0.1 0
25.6 0.1 0
26 0.1 0
26.4 0.1 0
26.8 0.1 0
27.2 0.1 0
27.6 0.1 0
28 0.1 0
28.4 0.1 0
28.8 0.1 0
29.2 0.1 0
29.6 0.1 0
30 0.1 0
30.4 0.1 0
30.8 0.1 0
31.2 0.1 0
31.6 0.1 0
32 0.1 0
32.4 0.1 0
32.8 0.1 0
33.2 0.1 0
33.6 0.1 0
34 0.1 0
34.4 0.1 0
34.8 0.1 0
35.2 0.1 0
35.6 0.1 0
36 0.1 0
36.4 0.1 0
36.8 0.1 0
37.2 0.1 0
37.6 0.1 0
38 0.1 0
38.4 0.1 0
38.8 0.1 0
39.2 0.1 0
39.6 0.1 0
40 0.1 0
40.4 0.1 0
0 0.2 0
0.4 0.2 0
0.8 0.2 0
1.2 0.2 0
1.6 0.2 0
2 0.2 0
2.4 0.2 0
2.8 0.2 0
3.2 0.2 0
3.6 0.2 0
4 0.2 0
4.4 0.2 0
4.8 0.2 0
5.2 0.2 0
5.6 0.2 0
6 0.2 0
6.4 0.2 0
6.8 0.2 0
7.2 0.2 0
7.6 0.2 0
8 0.2 0
8.4 0.2 0
8.8 0.2 0
9.2 0.2 0
9.6 0.2 0
10 0.2 0
10.4 0.2 0
10.8 0.2 0
11.2 0.2 0
11.6 0.2 0
12 0.2 0
12.4 0.2 0
12.8 0.2 0
13.2 0.2 0
13.6 0.2 0
14 0.2 0
14.4 0.2 0
14.8 0.2 0
15.2 0.2 0
15.6 0.2 0
16 0.2 0
16.4 0.2 0
16.8 0.2 0
17.2 0.2 0
17.6 0.2 0
18 0.2 0
18.4 0.2 0
18.8 0.2 0
19.2 0.2 0
19.6 0.2 0
20 0.2 0
20.4 0.2 0
20.8 0.2 0
21.2 0.2 0
21.6 0.2 0
22 0.2 0
22.4 0.2 0
22.8 0.2 0
23.2 0.2 0
23.6 0.2 0
24 0.2 0
24.4 0.2 0
24.8 0.2 0
25.2 0.2 0
25.6 0.2 0
26 0.2 0
26.4 0.2 0
26.8 0.2 0
27.2 0.2 0
27.6 0.2 0
28 0.2 0
28.4 0.2 0
28.8 0.2 0
29.2 0.2 0
29.6 0.2 0
30 0.2 0
30.4 0.2 0
30.8 0.2 0
31.2 0.2 0
31.6 0.2 0
32 0.2 0
32.4 0.2 0
32.8 0.2 0
33.2 0.2 0
33.6 0.2 0
34 0.2 0
34.4 0.2 0
34.8 0.2 0
35.2 0.2 0
35.6 0.2 0
36 0.2 0
36.4 0.2 0
36.8 0.2 0
37.2 0.2 0
37.6 0.2 0
38 0.2 0
38.4 0.2 0
38.8 0.2 0
39.2 0.2 0
39.6 0.2 0
40 0.2 0
40.4 0.2 0
0 0.3 0
0.4 0.3 0
0.8 0.3 0
1.2 0.3 0
1.6 0.3 0
2 0.3 0
2.4 0.3 0
2.8 0.3 0
3.2 0.3 0
3.6 0.3 0
4 0.3 0
4.4 0.3 0
4.8 0.3 0
5.2 0.3 0
5.6 0.3 0
6 0.3 0
6.4 0.3 0
6.8 0.3 0
7.2 0.3 0
7.6 0.3 0
8 0.3 0
8.4 0.3 0
8.8 0.3 0
9.2 0.3 0
9.6 0.3 0
10 0.3 0
10.4 0.3 0
10.8 0.3 0
11.2 0.3 0
11.6 0.3 0
12 0.3 0
12.4 0.3 0
12.8 0.3 0
13.2 0.3 0
13.6 0.3 0
14 0.3 0
14.4 0.3 0
14.8 0.3 0
15.2 0.3 0
15.6 0.3 0
16 0.3 0
16.4 0.3 0
16.8 0.3 0
17.2 0.3 0
17.6 0.3 0
18 0.3 0
18.4 0.3 0
18.8 0.3 0
19.2 0.3 0
19.6 0.3 0
20 0.3 0
20.4 0.3 0
20.8 0.3 0
21.2 0.3 0
21.6 0.3 0
22 0.3 0
22.4 0.3 0
22.8 0.3 0
23.2 0.3 0
23.6 0.3 0
24 0.3 0
24.4 0.3 0
24.8 0.3 0
25.2 0.3 0
25.6 0.3 0
26 0.3 0
26.4 0.3 0
26.8 0.3 0
27.2 0.3 0
27.6 0.3 0
28 0.3 0
28.4 0.3 0
28.8 0.3 0
29.2 0.3 0
29.6 0.3 0
30 0.3 0
30.4 0.3 0
30.8 0.3 0
31.2 0.3 0
31.6 0.3 0
32 0.3 0
32.4 0.3 0
32.8 0.3 0
33.2 0.3 0
33.6 0.3 0
34 0.3 0
34.4 0.3 0
34.8 0.3 0
35.2 0.3 0
35.6 0.3 0
36 0.3 0
36.4 0.3 0
36.8 0.3 0
37.2 0.3 0
37.6 0.3 0
38 0.3 0
38.4 0.3 0
38.8 0.3 0
39.2 0.3 0
39.6 0.3 0
40 0.3 0
40.4 0.3 0
0 0.4 0
0.4 0.4 0
0.8 0.4 0
1.2 0.4 0
1.6 0.4 0
2 0.4 0
2.4 0.4 0
2.8 0.4 0
3.2 0.4 0
3.6 0.4 0
4 0.4 0
4.4 0.4 0
4.8 0.4 0
5.2 0.4 0
5.6 0.4 0
6 0.4 0
6.4 0.4 0
6.8 0.4 0
7.2 0.4 0
7.6 0.4 0
8 0.4 0
8.4 0.4 0
8.8 0.4 0
9.2 0.4 0
9.6 0.4 0
10 0.4 0
10.4 0.4 0
10.8 0.4 0
11.2 0.4 0
11.6 0.4 0
12 0.4 0
12.4 0.4 0
12.8 0.4 0
13.2 0.4 0
13.6 0.4 0
14 0.4 0
14.4 0.4 0
14.8 0.4 0
15.2 0.4 0
15.6 0.4 0
16 0.4 0
16.4 0.4 0
16.8 0.4 0
17.2 0.4 0
17.6 0.4 0
18 0.4 0
18.4 0.4 0
18.8 0.4 0
19.2 0.4 0
19.6 0.4 0
20 0.4 0
20.4 0.4 0
20.8 0.4 0
21.2 0.4 0
21.6 0.4 0
22 0.4 0
22.4 0.4 0
22.8 0.4 0
23.2 0.4 0
23.6 0.4 0
24 0.4 0
24.4 0.4 0
24.8 0.4 0
25.2 0.4 0
25.6 0.4 0
26 0.4 0
26.4 0.4 0
26.8 0.4 0
27.2 0.4 0
27.6 0.4 0
28 0.4 0
28.4 0.4 0
28.8 0.4 0
29.2 0.4 0
29.6 0.4 0
30 0.4 0
30.4 0.4 0
30.8 0.4 0
31.2 0.4 0
31.6 0.4 0
32 0.4 0
32.4 0.4 0
32.8 0.4 0
33.2 0.4 0
33.6 0.4 0
34 0.4 0
34.4 0.4 0
34.8 0.4 0
35.2 0.4 0
35.6 0.4 0
36 0.4 0
36.4 0.4 0
36.8 0.4 0
37.2 0.4 0
37.6 0.4 0
38 0.4 0
38.4 0.4 0
38.8 0.4 0
39.2 0.4 0
39.6 0.4 0
40 0.4 0
40.4 0.4 0
0 0.5 0
0.4 0.5 0
0.8 0.5 0
1.2 0.5 0
1.6 0.5 0
2 0.5 0
2.4 0.5 0
2.8 0.5 0
3.2 0.5 0
3.6 0.5 0
4 0.5 0
4.4 0.5 0
4.8 0.5 0
5.2 0.5 0
5.6 0.5 0
6 0.5 0
6.4 0.5 0
6.8 0.5 0
7.2 0.5 0
7.6 0.5 0
8 0.5 0
8.4 0.5 0
8.8 0.5 0
9.2 0.5 0
9.6 0.5 0
10 0.5 0
10.4 0.5 0
10.8 0.5 0
11.2 0.5 0
11.6 0.5 0
12 0.5 0
12.4 0.5 0
12.8 0.5 0
13.2 0.5 0
13.6 0.5 0
14 0.5 0
14.4 0.5 0
14.8 0.5 0
15.2 0.5 0
15.6 0.5 0
16 0.5 0
16.4 0.5 0
16.8 0.5 0
17.2 0.5 0
17.6 0.5 0
18 0.5 0
18.4 0.5 0
18.8 0.5 0
19.2 0.5 0
19.6 0.5 0
20 0.5 0
20.4 0.5 0
20.8 0.5 0
21.2 0.5 0
21.6 0.5 0
22 0.5 0
22.4 0.5 0
22.8 0.5 0
23.2 0.5 0
23.6 0.5 0
24 0.5 0
24.4 0.5 0
24.8 0.5 0
25.2 0.5 0
25.6 0.5 0
26 0.5 0
26.4 0.5 0
26.8 0.5 0
27.2 0.5 0
27.6 0.5 0
28 0.5 0
28.4 0.5 0
28.8 0.5 0
29.2 0.5 0
29.6 0.5 0
30 0.5 0
30.4 0.5 0
30.8 0.5 0
31.2 0.5 0
31.6 0.5 0
32 0.5 0
32.4 0.5 0
32.8 0.5 0
33.2 0.5 0
33.6 0.5 0
34 0.5 0
34.4 0.5 0
34.8 0.5 0
35.2 0.5 0
35.6 0.5 0
36 0.5 0
36.4 0.5 0
36.8 0.5 0
37.2 0.5 0
37.6 0.5 0
38 0.5 0
38.4 0.5 0
38.8 0.5 0
39.2 0.5 0
39.6 0.5 0
40 0.5 0
40.4 0.5 0
0 0.6 0
0.4 0.6 0
0.8 0.6 0
1.2 0.6 0
1.6 0.6 0
2 0.6 0
2.4 0.6 0
2.8 0.6 0
3.2 0.6 0
3.6 0.6 0
4 0.6 0
4.4 0.6 0
4.8 0.6 0
5.2 0.6 0
5.6 0.6 0
6 0.6 0
6.4 0.6 0
6.8 0.6 0
7.2 0.6 0
7.6 0.6 0
8 0.6 0
8.4 0.6 0
8.8 0.6 0
9.2 0.6 0
9.6 0.6 0
10 0.6 0
10.4 0.6 0
10.8 0.6 0
11.2 0.6 0
11.6 0.6 0
12 0.6 0
12.4 0.6 0
12.8 0.6 0
13.2 0.6 0
13.6 0.6 0
14 0.6 0
14.4 0.6 0
14.8 0.6 0
15.2 0.6 0
15.6 0.6 0
16 0.6 0
16.4 0.6 0
16.8 0.6 0
17.2 0.6 0
17.6 0.6 0
18 0.6 0
18.4 0.6 0
18.8 0.6 0
19.2 0.6 0
19.6 0.6 0
20 0.6 0
20.4 0.6 0
20.8 0.6 0
21.2 0.6 0
21.6 0.6 0
22 0.6 0
22.4 0.6 0
22.8 0.6 0
23.2 0.6 0
23.6 0.6 0
24 0.6 0
24.4 0.6 0
24.8 0.6 0
25.2 0.6 0
25.6 0.6 0
26 0.6 0
26.4 0.6 0
26.8 0.6 0
27.2 0.6 0
27.6 0.6 0
28 0.6 0
28.4 0.6 0
28.8 0.6 0
29.2 0.6 0
29.6 0.6 0
30 0.6 0
30.4 0.6 0
30.8 0.6 0
31.2 0.6 0
31.6 0.6 0
32 0.6 0
32.4 0.6 0
32.8 0.6 0
33.2 0.6 0
33.6 0.6 0
34 0.6 0
34.4 0.6 0
34.8 0.6 0
35.2 0.6 0
35.6 0.6 0
36 0.6 0
36.4 0.6 0
36.8 0.6 0
37.2 0.6 0
37.6 0.6 0
38 0.6 0
38.4 0.6 0
38.8 0.6 0
39.2 0.6 0
39.6 0.6 0
40 0.6 0
40.4 0.6 0
0 0.7 0
0.4 0.7 0
0.8 0.7 0
1.2 0.7 0
1.6 0.7 0
2 0.7 0
2.4 0.7 0
2.8 0.7 0
3.2 0.7 0
3.6 0.7 0
4 0.7 0
4.4 0.7 0
4.8 0.7 0
5.2 0.7 0
5.6 0.7 0
6 0.7 0
6.4 0.7 0
6.8 0.7 0
7.2 0.7 0
7.6 0.7 0
8 0.7 0
8.4 0.7 0
8.8 0.7 0
9.2 0.7 0
9.6 0.7 0
10 0.7 0
10.4 0.7 0
10.8 0.7 0
11.2 0.7 0
11.6 0.7 0
12 0.7 0
12.4 0.7 0
12.8 0.7 0
13.2 0.7 0
13.6 0.7 0
14 0.7 0
14.4 0.7 0
14.8 0.7 0
15.2 0.7 0
15.6 0.7 0
16 0.7 0
16.4 0.7 0
16.8 0.7 0
17.2 0.7 0
17.6 0.7 0
18 0.7 0
18.4 0.7 0
18.8 0.7 0
19.2 0.7 0
19.6 0.7 0
20 0.7 0
20.4 0.7 0
20.8 0.7 0
21.2 0.7 0
21.6 0.7 0
22 0.7 0
22.4 0.7 0
22.8 0.7 0
23.2 0.7 0
23.6 0.7 0
24 0.7 0
24.4 0.7 0
24.8 0.7 0
25.2 0.7 0
25.6 0.7 0
26 0.7 0
26.4 0.7 0
26.8 0.7 0
27.2 0.7 0
27.6 0.7 0
28 0.7 0
28.4 0.7 0
28.8 0.7 0
29.2 0.7 0
29.6 0.7 0
30 0.7 0
30.4 0.7 0
30.8 0.7 0
31.2 0.7 0
31.6 0.7 0
32 0.7 0
32.4 0.7 0
32.8 0.7 0
33.2 0.7 0
33.6 0.7 0
34 0.7 0
34.4 0.7 0
34.8 0.7 0
35.2 0.7 0
35.6 0.7 0
36 0.7 0
36.4 0.7 0
36.8 0.7 0
37.2 0.7 0
37.6 0.7 0
38 0.7 0
38.4 0.7 0
38.8 0.7 0
39.2 0.7 0
39.6 0.7 0
40 0.7 0
40.4 0.7 0
0 0.8 0
0.4 0.8 0
0.8 0.8 0
1.2 0.8 0
1.6 0.8 0
2 0.8 0
2.4 0.8 0
2.8 0.8 0
3.2 0.8 0
3.6 0.8 0
4 0.8 0
4.4 0.8 0
4.8 0.8 0
5.2 0.8 0
5.6 0.8 0
6 0.8 0
6.4 0.8 0
6.8 0.8 0
7.2 0.8 0
7.6 0.8 0
8 0.8 0
8.4 0.8 0
8.8 0.8 0
9.2 0.8 0
9.6 0.8 0
10 0.8 0
10.4 0.8 0
10.8 0.8 0
11.2 0.8 0
11.6 0.8 0
12 0.8 0
12.4 0.8 0
12.8 0.8 0
13.2 0.8 0
13.6 0.8 0
14 0.8 0
14.4 0.8 0
14.8 0.8 0
15.2 0.8 0
15.6 0.8 0
16 0.8 0
16.4 0.8 0
16.8 0.8 0
17.2 0.8 0
17.6 0.8 0
18 0.8 0
18.4 0.8 0
18.8 0.8 0
19.2 0.8 0
19.6 0.8 0
20 0.8 0
20.4 0.8 0
20.8 0.8 0
21.2 0.8 0
21.6 0.8 0
22 0.8 0
22.4 0.8 0
22.8 0.8 0
23.2 0.8 0
23.6 0.8 0
24 0.8 0
24.4 0.8 0
24.8 0.8 0
25.2 0.8 0
25.6 0.8 0
26 0.8 0
26.4 0.8 0
26.8 0.8 0
27.2 0.8 0
27.6 0.8 0
28 0.8 0
28.4 0.8 0
28.8 0.8 0
29.2 0.8 0
29.6 0.8 0
30 0.8 0
30.4 0.8 0
30.8 0.8 0
31.2 0.8 0
31.6 0.8 0
32 0.8 0
32.4 0.8 0
32.8 0.8 0
33.2 0.8 0
33.6 0.8 0
34 0.8 0
34.4 0.8 0
34.8 0.8 0
35.2 0.8 0
35.6 0.8 0
36 0.8 0
36.4 0.8 0
36.8 0.8 0
37.2 0.8 0
37.6 0.8 0
38 0.8 0
38.4 0.8 0
38.8 0.8 0
39.2 0.8 0
39.6 0.8 0
40 0.8 0
40.4 0.8 0
0 0.9 0
0.4 0.9 0
0.8 0.9 0
1.2 0.9 0
1.6 0.9 0
2 0.9 0
2.4 0.9 0
2.8 0.9 0
3.2 0.9 0
3.6 0.9 0
4 0.9 0
4.4 0.9 0
4.8 0.9 0
5.2 0.9 0
5.6 0.9 0
6 0.9 0
6.4 0.9 0
6.8 0.9 0
7.2 0.9 0
7.6 0.9 0
8 0.9 0
8.4 0.9 0
8.8 0.9 0
9.2 0.9 0
9.6 0.9 0
10 0.9 0
10.4 0.9 0
10.8 0.9 0
11.2 0.9 0
11.6 0.9 0
12 0.9 0
12.4 0.9 0
12.8 0.9 0
13.2 0.9 0
13.6 0.9 0
14 0.9 0
14.4 0.9 0
14.8 0.9 0
15.2 0.9 0
15.6 0.9 0
16 0.9 0
16.4 0.9 0
16.8 0.9 0
17.2 0.9 0
17.6 0.9 0
18 0.9 0
18.4 0.9 0
18.8 0.9 0
19.2 0.9 0
19.6 0.9 0
20 0.9 0
20.4 0.9 0
20.8 0.9 0
21.2 0.9 0
21.6 0.9 0
22 0.9 0
22.4 0.9 0
22.8 0.9 0
23.2 0.9 0
23.6 0.9 0
24 0.9 0
24.4 0.9 0
24.8 0.9 0
25.2 0.9 0
25.6 0.9 0
26 0.9 0
26.4 0.9 0
26.8 0.9 0
27.2 0.9 0
27.6 0.9 0
28 0.9 0
28.4 0.9 0
28.8 0.9 0
29.2 0.9 0
29.6 0.9 0
30 0.9 0
30.4 0.9 0
30.8 0.9 0
31.2 0.9 0
31.6 0.9 0
32 0.9 0
32.4 0.9 0
32.8 0.9 0
33.2 0.9 0
33.6 0.9 0
34 0.9 0
34.4 0.9 0
34.8 0.9 0
35.2 0.9 0
35.6 0.9 0
36 0.9 0
36.4 0.9 0
36.8 0.9 0
37.2 0.9 0
37.6 0.9 0
38 0.9 0
38.4 0.9 0
38.8 0.9 0
39.2 0.9 0
39.6 0.9 0
40 0.9 0
40.4 0.9 0
0 1 0
0.4 1 0
0.8 1 0
1.2 1 0
1.6 1 0
2 1 0
2.4 1 0
2.8 1 0
3.2 1 0
3.6 1 0
4 1 0
4.4 1 0
4.8 1 0
5.2 1 0
5.6 1 0
6 1 0
6.4 1 0
6.8 1 0
7.2 1 0
7.6 1 0
8 1 0
8.4 1 0
8.8 1 0
9.2 1 0
9.6 1 0
10 1 0
10.4 1 0
10.8 1 0
11.2 1 0
11.6 1 0
12 1 0
12.4 1 0
12.8 1 0
13.2 1 0
13.6 1 0
14 1 0
14.4 1 0
14.8 1 0
15.2 1 0
15.6 1 0
16 1 0
16.4 1 0
16.8 1 0
17.2 1 0
17.6 1 0
18 1 0
18.4 1 0
18.8 1 0
19.2 1 0
19.6 1 0
20 1 0
20.4 1 0
20.8 1 0
21.2 1 0
21.6 1 0
22 1 0
22.4 1 0
22.8 1 0
23.2 1 0
23.6 1 0
24 1 0
24.4 1 0
24.8 1 0
25.2 1 0
25.6 1 0
26 1 0
26.4 1 0
26.8 1 0
27.2 1 0
27.6 1 0
28 1 0
28.4 1 0
28.8 1 0
29.2 1 0
29.6 1 0
30 1 0
30.4 1 0
30.8 1 0
31.2 1 0
31.6 1 0
32 1 0
32.4 1 0
32.8 1 0
33.2 1 0
33.6 1 0
34 1 0
34.4 1 0
34.8 1 0
35.2 1 0
35.6 1 0
36 1 0
36.4 1 0
36.8 1 0
37.2 1 0
37.6 1 0
38 1 0
38.4 1 0
38.8 1 0
39.2 1 0
39.6 1 0
40 1 0
40.4 1 0
0 1.1 0
0.4 1.1 0
0.8 1.1 0
1.2 1.1 0
1.6 1.1 0
2 1.1 0
2.4 1.1 0
2.8 1.1 0
3.2 1.1 0
3.6 1.1 0
4 1.1 0
4.4 1.1 0
4.8 1.1 0
5.2 1.1 0
5.6 1.1 0
6 1.1 0
6.4 1.1 0
6.8 1.1 0
7.2 1.1 0
7.6 1.1 0
8 1.1 0
8.4 1.1 0
8.8 1.1 0
9.2 1.1 0
9.6 1.1 0
10 1.1 0
10.4 1.1 0
10.8 1.1 0
11.2 1.1 0
11.6 1.1 0
12 1.1 0
12.4 1.1 0
12.8 1.1 0
13.2 1.1 0
13.6 1.1 0
14 1.1 0
14.4 1.1 0
14.8 1.1 0
15.2 1.1 0
15.6 1.1 0
16 1.1 0
16.4 1.1 0
16.8 1.1 0
17.2 1.1 0
17.6 1.1 0
18 1.1 0
18.4 1.1 0
18.8 1.1 0
19.2 1.1 0
19.6 1.1 0
20 1.1 0
20.4 1.1 0
20.8 1.1 0
21.2 1.1 0
21.6 1.1 0
22 1.1 0
22.4 1.1 0
22.8 1.1 0
23.2 1.1 0
23.6 1.1 0
24 1.1 0
24.4 1.1 0
24.8 1.1 0
25.2 1.1 0
25.6 1.1 0
26 1.1 0
26.4 1.1 0
26.8 1.1 0
27.2 1.1 0
27.6 1.1 0
28 1.1 0
28.4 1.1 0
28.8 1.1 0
29.2 1.1 0
29.6 1.1 0
30 1.1 0
30.4 1.1 0
30.8 1.1 0
31.2 1.1 0
31.6 1.1 0
32 1.1 0
32.4 1.1 0
32.8 1.1 0
33.2 1.1 0
33.6 1.1 0
34 1.1 0
34.4 1.1 0
34.8 1.1 0
35.2 1.1 0
35.6 1.1 0
36 1.1 0
36.4 1.1 0
36.8 1.1 0
37.2 1.1 0
37.6 1.1 0
38 1.1 0
38.4 1.1 0
38.8 1.1 0
39.2 1.1 0
39.6 1.1 0
40 1.1 0
40.4 1.1 0

POINT_DATA 1224

SCALARS p double
LOOKUP_TABLE default
12.5161
12.5161
11.7989
11.0723
10.4391
9.90837
9.46309
9.08086
8.74302
8.43649
8.15278
7.88642
7.6337
7.39198
7.15927
6.93397
6.71478
6.50063
6.29061
6.08397
5.88009
5.67843
5.47856
5.28012
5.08282
4.88643
4.69073
4.49558
4.30084
4.10639
3.91214
3.71803
3.52395
3.32983
3.13561
2.94124
2.74669
2.55195
2.35703
2.16192
1.96666
1.77126
1.57574
1.38013
1.18445
0.988714
0.792941
0.59714
0.401321
0.20549
0.00965139
-0.186191
-0.382035
-0.57788
-0.773725
-0.96957
-1.16541
-1.36126
-1.5571
-1.75294
-1.94879
-2.14463
-2.34047
-2.53631
-2.73216
-2.928
-3.12384
-3.31968
-3.51552
-3.71136
-3.9072
-4.10305
-4.29889
-4.49473
-4.69057
-4.88641
-5.08225
-5.27809
-5.47394
-5.66978
-5.86562
-6.06146
-6.2573
-6.45314
-6.64898
-6.84482
-7.04066
-7.23651
-7.43235
-7.62819
-7.82403
-8.01988
-8.21573
-8.41166
-8.60772
-8.80479
-9.00397
-9.21728
-9.46376
-9.89804
-11.4727
11.4727
12.5161
12.5161
11.7989
11.0723
10.4391
9.90837
9.46309
9.08086
8.74302
8.43649
8.15278
7.88642
7.6337
7.39198
7.15927
6.93397
6.71478
6.50063
6.29061
6.08397
5.88009
5.67843
5.47856
5.28012
5.08282
4.88643
4.69073
4.49558
4.30084
4.10639
3.91214
3.71803
3.52395
3.32983
3.13561
2.94124
2.74669
2.55195
2.35703
2.16192
1.96666
1.77126
1.57574
1.38013
1.18445
0.988714
0.792941
0.59714
0.401321
0.20549
0.00965139
-0.186191
-0.382035
-0.57788
-0.773725
-0.96957
-1.16541
-1.36126
-1.5571
-1.75294
-1.94879
-2.14463
-2.34047
-2.53631
-2.73216
-2.928
-3.12384
-3.31968
-3.51552
-3.71136
-3.9072
-4.10305
-4.29889
-4.49473
-4.69057
-4.88641
-5.08225
-5.27809
-5.47394
-5.66978
-5.86562
-6.06146
-6.2573
-6.45314
-6.64898
-6.84482
-7.04066
-7.23651
-7.43235
-7.62819
-7.82403
-8.01988
-8.21573
-8.41166
-8.60772
-8.80479
-9.00397
-9.21728
-9.46376
-9.89804
-11.4727
11.4727
12.1431
12.1431
11.5733
10.9567
10.3935
9.9017
9.47484
9.0994
8.76256
8.45457
8.16858
7.89984
7.64495
7.40135
7.16703
6.94039
6.72007
6.50498
6.29419
6.0869
5.88247
5.68036
5.48011
5.28135
5.08378
4.88715
4.69126
4.49594
4.30106
4.10651
3.91218
3.718
3.52387
3.32973
3.1355
2.94112
2.74658
2.55186
2.35695
2.16186
1.96661
1.77122
1.57571
1.38011
1.18443
0.988704
0.792933
0.597134
0.401317
0.205487
0.00964934
-0.186192
-0.382036
-0.577881
-0.773726
-0.969571
-1.16541
-1.36126
-1.5571
-1.75294
-1.94879
-2.14463
-2.34047
-2.53631
-2.73216
-2.928
-3.12384
-3.31968
-3.51552
-3.71136
-3.9072
-4.10305
-4.29889
-4.49473
-4.69057
-4.88641
-5.08225
-5.27809
-5.47394
-5.66978
-5.86562
-6.06146
-6.2573
-6.45314
-6.64898
-6.84482
-7.04066
-7.23651
-7.43235
-7.62819
-7.82403
-8.01987
-8.21572
-8.41161
-8.60751
-8.80398
-9.00091
-9.20519
-9.42039
-9.74343
-10.4504
10.4504
11.8472
11.8472
11.3576
10.8193
10.3177
9.86834
9.46765
9.10677
8.77709
8.47186
8.1862
7.91653
7.66011
7.41478
7.17874
6.95047
6.72869
6.5123
6.30037
6.0921
5.88684
5.684
5.48314
5.28385
5.08583
4.88881
4.69259
4.49698
4.30186
4.10711
3.91263
3.71831
3.52408
3.32985
3.13554
2.94113
2.74656
2.55181
2.3569
2.16181
1.96656
1.77117
1.57567
1.38008
1.18441
0.988682
0.792916
0.597121
0.401306
0.205478
0.00964295
-0.186197
-0.38204
-0.577884
-0.773728
-0.969572
-1.16542
-1.36126
-1.5571
-1.75295
-1.94879
-2.14463
-2.34047
-2.53631
-2.73216
-2.928
-3.12384
-3.31968
-3.51552
-3.71136
-3.9072
-4.10305
-4.29889
-4.49473
-4.69057
-4.88641
-5.08225
-5.27809
-5.47394
-5.66978
-5.86562
-6.06146
-6.2573
-6.45314
-6.64898
-6.84482
-7.04066
-7.23651
-7.43235
-7.62819
-7.82403
-8.01987
-8.2157
-8.41152
-8.6072
-8.80271
-8.99635
-9.18739
-9.35015
-9.50811
-9.07803
9.07803
11.6564
11.6564
11.2123
10.72
10.2568
9.83627
9.45545
9.10741
8.78549
8.48455
8.20087
7.93169
7.67486
7.4286
7.19135
6.96177
6.73868
6.52105
6.30797
6.09866
5.89245
5.6888
5.48721
5.2873
5.08873
4.89124
4.6946
4.49865
4.30322
4.10821
3.91352
3.71902
3.52462
3.33025
3.13583
2.94131
2.74667
2.55187
2.35691
2.16179
1.96653
1.77113
1.57563
1.38004
1.18437
0.988649
0.792888
0.597098
0.401287
0.205464
0.00963156
-0.186206
-0.382047
-0.577889
-0.773732
-0.969575
-1.16542
-1.36126
-1.5571
-1.75295
-1.94879
-2.14463
-2.34047
-2.53631
-2.73216
-2.928
-3.12384
-3.31968
-3.51552
-3.71136
-3.9072
-4.10305
-4.29889
-4.49473
-4.69057
-4.88641
-5.08225
-5.27809
-5.47394
-5.66978
-5.86562
-6.06146
-6.2573
-6.45314
-6.64898
-6.84482
-7.04066
-7.23651
-7.43235
-7.62819
-7.82403
-8.01986
-8.21568
-8.41144
-8.60691
-8.8016
-8.99198
-9.17222
-9.28126
-9.30215
-7.84526
7.84526
11.5634
11.5634
11.1409
10.6705
10.2256
9.81905
9.44832
9.1072
8.78982
8.49169
8.20956
7.94106
7.68431
7.43772
7.19991
6.96963
6.74578
6.52737
6.31355
6.10354
5.8967
5.69246
5.49036
5.28999
5.09102
4.89318
4.69624
4.50002
4.30437
4.10916
3.91429
3.71965
3.52512
3.33064
3.13612
2.94152
2.74681
2.55196
2.35696
2.16181
1.96653
1.77112
1.57561
1.38001
1.18434
0.988625
0.792866
0.597079
0.401272
0.205451
0.00962179
-0.186214
-0.382052
-0.577893
-0.773735
-0.969577
-1.16542
-1.36126
-1.5571
-1.75295
-1.94879
-2.14463
-2.34047
-2.53631
-2.73216
-2.928
-3.12384
-3.31968
-3.51552
-3.71136
-3.9072
-4.10305
-4.29889
-4.49473
-4.69057
-4.88641
-5.08225
-5.27809
-5.47394
-5.66978
-5.86562
-6.06146
-6.2573
-6.45314
-6.64898
-6.84482
-7.04066
-7.23651
-7.43235
-7.62819
-7.82403
-8.01986
-8.21567
-8.41139
-8.60673
-8.801
-8.98926
-9.16405
-9.23905
-9.18698
-7.12929
7.12929
11.5634
11.5634
11.1409
10.6705
10.2256
9.81905
9.44832
9.1072
8.78982
8.49169
8.20956
7.94106
7.68431
7.43772
7.19991
6.96963
6.74578
6.52737
6.31355
6.10354
5.8967
5.69246
5.49036
5.28999
5.09102
4.89318
4.69624
4.50002
4.30437
4.10916
3.91429
3.71965
3.52512
3.33064
3.13612
2.94152
2.74681
2.55196
2.35696
2.16181
1.96653
1.77112
1.57561
1.38001
1.18434
0.988625
0.792866
0.597079
0.401272
0.205452
0.00962189
-0.186213
-0.382052
-0.577893
-0.773735
-0.969577
-1.16542
-1.36126
-1.5571
-1.75295
-1.94879
-2.14463
-2.34047
-2.53631
-2.73216
-2.928
-3.12384
-3.31968
-3.51552
-3.71136
-3.9072
-4.10305
-4.29889
-4.49473
-4.69057
-4.88641
-5.08225
-5.27809
-5.47394
-5.66978
-5.86562
-6.06146
-6.2573
-6.45314
-6.64898
-6.84482
-7.04066
-7.23651
-7.43235
-7.62819
-7.82403
-8.01986
-8.21567
-8.41139
-8.60673
-8.801
-8.98926
-9.16406
-9.23905
-9.18698
-7.12929
7.12929
11.6564
11.6564
11.2123
10.72
10.2568
9.83627
9.45545
9.10741
8.78549
8.48455
8.20087
7.93169
7.67486
7.4286
7.19135
6.96177
6.73868
6.52105
6.30797
6.09866
5.89245
5.6888
5.48721
5.2873
5.08873
4.89124
4.6946
4.49865
4.30322
4.10821
3.91352
3.71902
3.52462
3.33025
3.13583
2.94131
2.74667
2.55187
2.35691
2.16179
1.96653
1.77113
1.57563
1.38004
1.18437
0.988649
0.792888
0.597098
0.401288
0.205464
0.00963184
-0.186206
-0.382046
-0.577889
-0.773731
-0.969575
-1.16542
-1.36126
-1.5571
-1.75295
-1.94879
-2.14463
-2.34047
-2.53631
-2.73216
-2.928
-3.12384
-3.31968
-3.51552
-3.71136
-3.9072
-4.10305
-4.29889
-4.49473
-4.69057
-4.88641
-5.08225
-5.27809
-5.47394
-5.66978
-5.86562
-6.06146
-6.2573
-6.45314
-6.64898
-6.84482
-7.04066
-7.23651
-7.43235
-7.62819
-7.82403
-8.01986
-8.21568
-8.41144
-8.60691
-8.8016
-8.99198
-9.17222
-9.28126
-9.30216
-7.84527
7.84527
11.8472
11.8472
11.3576
10.8193
10.3177
9.86834
9.46765
9.10677
8.77709
8.47186
8.1862
7.91653
7.66011
7.41478
7.17874
6.95047
6.72869
6.5123
6.30037
6.0921
5.88684
5.684
5.48314
5.28385
5.08583
4.88881
4.69259
4.49699
4.30186
4.10712
3.91263
3.71832
3.52408
3.32985
3.13554
2.94113
2.74655
2.55181
2.35689
2.1618
1.96656
1.77117
1.57567
1.38008
1.18441
0.988682
0.792916
0.597121
0.401306
0.205479
0.00964336
-0.186197
-0.38204
-0.577883
-0.773728
-0.969572
-1.16542
-1.36126
-1.5571
-1.75294
-1.94879
-2.14463
-2.34047
-2.53631
-2.73216
-2.928
-3.12384
-3.31968
-3.51552
-3.71136
-3.9072
-4.10305
-4.29889
-4.49473
-4.69057
-4.88641
-5.08225
-5.27809
-5.47394
-5.66978
-5.86562
-6.06146
-6.2573
-6.45314
-6.64898
-6.84482
-7.04066
-7.23651
-7.43235
-7.62819
-7.82403
-8.01987
-8.2157
-8.41152
-8.6072
-8.80271
-8.99635
-9.18739
-9.35015
-9.50811
-9.07804
9.07804
12.1431
12.1431
11.5733
10.9567
10.3935
9.9017
9.47484
9.0994
8.76256
8.45457
8.16858
7.89984
7.64495
7.40135
7.16703
6.94039
6.72007
6.50498
6.29419
6.0869
5.88247
5.68036
5.48011
5.28135
5.08378
4.88715
4.69126
4.49594
4.30106
4.10651
3.91218
3.718
3.52388
3.32973
3.1355
2.94112
2.74658
2.55186
2.35695
2.16186
1.96661
1.77122
1.57571
1.38011
1.18443
0.988704
0.792933
0.597135
0.401317
0.205487
0.00964981
-0.186192
-0.382036
-0.577881
-0.773726
-0.96957
-1.16541
-1.36126
-1.5571
-1.75294
-1.94879
-2.14463
-2.34047
-2.53631
-2.73216
-2.928
-3.12384
-3.31968
-3.51552
-3.71136
-3.9072
-4.10305
-4.29889
-4.49473
-4.69057
-4.88641
-5.08225
-5.27809
-5.47394
-5.66978
-5.86562
-6.06146
-6.2573
-6.45314
-6.64898
-6.84482
-7.04066
-7.23651
-7.43235
-7.62819
-7.82403
-8.01987
-8.21572
-8.41161
-8.60751
-8.80398
-9.00091
-9.2052
-9.42039
-9.74344
-10.4504
10.4504
12.5161
12.5161
11.7989
11.0723
10.4391
9.90837
9.46309
9.08086
8.74302
8.43648
8.15278
7.88642
7.6337
7.39198
7.15927
6.93397
6.71478
6.50063
6.29061
6.08397
5.88009
5.67843
5.47856
5.28012
5.08282
4.88643
4.69073
4.49558
4.30084
4.10639
3.91214
3.71803
3.52395
3.32983
3.13561
2.94124
2.74669
2.55195
2.35702
2.16192
1.96666
1.77126
1.57574
1.38013
1.18445
0.988714
0.792941
0.59714
0.401321
0.20549
0.00965184
-0.18619
-0.382035
-0.57788
-0.773725
-0.96957
-1.16541
-1.36126
-1.5571
-1.75294
-1.94879
-2.14463
-2.34047
-2.53631
-2.73216
-2.928
-3.12384
-3.31968
-3.51552
-3.71136
-3.9072
-4.10305
-4.29889
-4.49473
-4.69057
-4.88641
-5.08225
-5.27809
-5.47394
-5.66978
-5.86562
-6.06146
-6.2573
-6.45314
-6.64898
-6.84482
-7.04066
-7.23651
-7.43235
-7.62819
-7.82403
-8.01988
-8.21573
-8.41166
-8.60772
-8.80479
-9.00397
-9.21728
-9.46376
-9.89804
-11.4727
11.4727
12.5161
12.5161
11.7989
11.0723
10.4391
9.90837
9.46309
9.08086
8.74302
8.43648
8.15278
7.88642
7.6337
7.39198
7.15927
6.93397
6.71478
6.50063
6.29061
6.08397
5.88009
5.67843
5.47856
5.28012
5.08282
4.88643
4.69073
4.49558
4.30084
4.10639
3.91214
3.71803
3.52395
3.32983
3.13561
2.94124
2.74669
2.55195
2.35702
2.16192
1.96666
1.77126
1.57574
1.38013
1.18445
0.988714
0.792941
0.59714
0.401321
0.20549
0.00965184
-0.18619
-0.382035
-0.57788
-0.773725
-0.96957
-1.16541
-1.36126
-1.5571
-1.75294
-1.94879
-2.14463
-2.34047
-2.53631
-2.73216
-2.928
-3.12384
-3.31968
-3.51552
-3.71136
-3.9072
-4.10305
-4.29889
-4.49473
-4.69057
-4.88641
-5.08225
-5.27809
-5.47394
-5.66978
-5.86562
-6.06146
-6.2573
-6.45314
-6.64898
-6.84482
-7.04066
-7.23651
-7.43235
-7.62819
-7.82403
-8.01988
-8.21573
-8.41166
-8.60772
-8.80479
-9.00397
-9.21728
-9.46376
-9.89804
-11.4727
11.4727
