# vtk DataFile Version 2.0
FlowField
ASCII
DATASET STRUCTURED_GRID
DIMENSIONS 102 1 12 
POINTS 1224 double
0 0 0
0.4 0 0
0.8 0 0
1.2 0 0
1.6 0 0
2 0 0
2.4 0 0
2.8 0 0
3.2 0 0
3.6 0 0
4 0 0
4.4 0 0
4.8 0 0
5.2 0 0
5.6 0 0
6 0 0
6.4 0 0
6.8 0 0
7.2 0 0
7.6 0 0
8 0 0
8.4 0 0
8.8 0 0
9.2 0 0
9.6 0 0
10 0 0
10.4 0 0
10.8 0 0
11.2 0 0
11.6 0 0
12 0 0
12.4 0 0
12.8 0 0
13.2 0 0
13.6 0 0
14 0 0
14.4 0 0
14.8 0 0
15.2 0 0
15.6 0 0
16 0 0
16.4 0 0
16.8 0 0
17.2 0 0
17.6 0 0
18 0 0
18.4 0 0
18.8 0 0
19.2 0 0
19.6 0 0
20 0 0
20.4 0 0
20.8 0 0
21.2 0 0
21.6 0 0
22 0 0
22.4 0 0
22.8 0 0
23.2 0 0
23.6 0 0
24 0 0
24.4 0 0
24.8 0 0
25.2 0 0
25.6 0 0
26 0 0
26.4 0 0
26.8 0 0
27.2 0 0
27.6 0 0
28 0 0
28.4 0 0
28.8 0 0
29.2 0 0
29.6 0 0
30 0 0
30.4 0 0
30.8 0 0
31.2 0 0
31.6 0 0
32 0 0
32.4 0 0
32.8 0 0
33.2 0 0
33.6 0 0
34 0 0
34.4 0 0
34.8 0 0
35.2 0 0
35.6 0 0
36 0 0
36.4 0 0
36.8 0 0
37.2 0 0
37.6 0 0
38 0 0
38.4 0 0
38.8 0 0
39.2 0 0
39.6 0 0
40 0 0
40.4 0 0
0 0.1 0
0.4 0.1 0
0.8 0.1 0
1.2 0.1 0
1.6 0.1 0
2 0.1 0
2.4 0.1 0
2.8 0.1 0
3.2 0.1 0
3.6 0.1 0
4 0.1 0
4.4 0.1 0
4.8 0.1 0
5.2 0.1 0
5.6 0.1 0
6 0.1 0
6.4 0.1 0
6.8 0.1 0
7.2 0.1 0
7.6 0.1 0
8 0.1 0
8.4 0.1 0
8.8 0.1 0
9.2 0.1 0
9.6 0.1 0
10 0.1 0
10.4 0.1 0
10.8 0.1 0
11.2 0.1 0
11.6 0.1 0
12 0.1 0
12.4 0.1 0
12.8 0.1 0
13.2 0.1 0
13.6 0.1 0
14 0.1 0
14.4 0.1 0
14.8 0.1 0
15.2 0.1 0
15.6 0.1 0
16 0.1 0
16.4 0.1 0
16.8 0.1 0
17.2 0.1 0
17.6 0.1 0
18 0.1 0
18.4 0.1 0
18.8 0.1 0
19.2 0.1 0
19.6 0.1 0
20 0.1 0
20.4 0.1 0
20.8 0.1 0
21.2 0.1 0
21.6 0.1 0
22 0.1 0
22.4 0.1 0
22.8 0.1 0
23.2 0.1 0
23.6 0.1 0
24 0.1 0
24.4 0.1 0
24.8 0.1 0
25.2 0.1 0
25.6 0.1 0
26 0.1 0
26.4 0.1 0
26.8 0.1 0
27.2 0.1 0
27.6 0.1 0
28 0.1 0
28.4 0.1 0
28.8 0.1 0
29.2 0.1 0
29.6 0.1 0
30 0.1 0
30.4 0.1 0
30.8 0.1 0
31.2 0.1 0
31.6 0.1 0
32 0.1 0
32.4 0.1 0
32.8 0.1 0
33.2 0.1 0
33.6 0.1 0
34 0.1 0
34.4 0.1 0
34.8 0.1 0
35.2 0.1 0
35.6 0.1 0
36 0.1 0
36.4 0.1 0
36.8 0.1 0
37.2 0.1 0
37.6 0.1 0
38 0.1 0
38.4 0.1 0
38.8 0.1 0
39.2 0.1 0
39.6 0.1 0
40 0.1 0
40.4 0.1 0
0 0.2 0
0.4 0.2 0
0.8 0.2 0
1.2 0.2 0
1.6 0.2 0
2 0.2 0
2.4 0.2 0
2.8 0.2 0
3.2 0.2 0
3.6 0.2 0
4 0.2 0
4.4 0.2 0
4.8 0.2 0
5.2 0.2 0
5.6 0.2 0
6 0.2 0
6.4 0.2 0
6.8 0.2 0
7.2 0.2 0
7.6 0.2 0
8 0.2 0
8.4 0.2 0
8.8 0.2 0
9.2 0.2 0
9.6 0.2 0
10 0.2 0
10.4 0.2 0
10.8 0.2 0
11.2 0.2 0
11.6 0.2 0
12 0.2 0
12.4 0.2 0
12.8 0.2 0
13.2 0.2 0
13.6 0.2 0
14 0.2 0
14.4 0.2 0
14.8 0.2 0
15.2 0.2 0
15.6 0.2 0
16 0.2 0
16.4 0.2 0
16.8 0.2 0
17.2 0.2 0
17.6 0.2 0
18 0.2 0
18.4 0.2 0
18.8 0.2 0
19.2 0.2 0
19.6 0.2 0
20 0.2 0
20.4 0.2 0
20.8 0.2 0
21.2 0.2 0
21.6 0.2 0
22 0.2 0
22.4 0.2 0
22.8 0.2 0
23.2 0.2 0
23.6 0.2 0
24 0.2 0
24.4 0.2 0
24.8 0.2 0
25.2 0.2 0
25.6 0.2 0
26 0.2 0
26.4 0.2 0
26.8 0.2 0
27.2 0.2 0
27.6 0.2 0
28 0.2 0
28.4 0.2 0
28.8 0.2 0
29.2 0.2 0
29.6 0.2 0
30 0.2 0
30.4 0.2 0
30.8 0.2 0
31.2 0.2 0
31.6 0.2 0
32 0.2 0
32.4 0.2 0
32.8 0.2 0
33.2 0.2 0
33.6 0.2 0
34 0.2 0
34.4 0.2 0
34.8 0.2 0
35.2 0.2 0
35.6 0.2 0
36 0.2 0
36.4 0.2 0
36.8 0.2 0
37.2 0.2 0
37.6 0.2 0
38 0.2 0
38.4 0.2 0
38.8 0.2 0
39.2 0.2 0
39.6 0.2 0
40 0.2 0
40.4 0.2 0
0 0.3 0
0.4 0.3 0
0.8 0.3 0
1.2 0.3 0
1.6 0.3 0
2 0.3 0
2.4 0.3 0
2.8 0.3 0
3.2 0.3 0
3.6 0.3 0
4 0.3 0
4.4 0.3 0
4.8 0.3 0
5.2 0.3 0
5.6 0.3 0
6 0.3 0
6.4 0.3 0
6.8 0.3 0
7.2 0.3 0
7.6 0.3 0
8 0.3 0
8.4 0.3 0
8.8 0.3 0
9.2 0.3 0
9.6 0.3 0
10 0.3 0
10.4 0.3 0
10.8 0.3 0
11.2 0.3 0
11.6 0.3 0
12 0.3 0
12.4 0.3 0
12.8 0.3 0
13.2 0.3 0
13.6 0.3 0
14 0.3 0
14.4 0.3 0
14.8 0.3 0
15.2 0.3 0
15.6 0.3 0
16 0.3 0
16.4 0.3 0
16.8 0.3 0
17.2 0.3 0
17.6 0.3 0
18 0.3 0
18.4 0.3 0
18.8 0.3 0
19.2 0.3 0
19.6 0.3 0
20 0.3 0
20.4 0.3 0
20.8 0.3 0
21.2 0.3 0
21.6 0.3 0
22 0.3 0
22.4 0.3 0
22.8 0.3 0
23.2 0.3 0
23.6 0.3 0
24 0.3 0
24.4 0.3 0
24.8 0.3 0
25.2 0.3 0
25.6 0.3 0
26 0.3 0
26.4 0.3 0
26.8 0.3 0
27.2 0.3 0
27.6 0.3 0
28 0.3 0
28.4 0.3 0
28.8 0.3 0
29.2 0.3 0
29.6 0.3 0
30 0.3 0
30.4 0.3 0
30.8 0.3 0
31.2 0.3 0
31.6 0.3 0
32 0.3 0
32.4 0.3 0
32.8 0.3 0
33.2 0.3 0
33.6 0.3 0
34 0.3 0
34.4 0.3 0
34.8 0.3 0
35.2 0.3 0
35.6 0.3 0
36 0.3 0
36.4 0.3 0
36.8 0.3 0
37.2 0.3 0
37.6 0.3 0
38 0.3 0
38.4 0.3 0
38.8 0.3 0
39.2 0.3 0
39.6 0.3 0
40 0.3 0
40.4 0.3 0
0 0.4 0
0.4 0.4 0
0.8 0.4 0
1.2 0.4 0
1.6 0.4 0
2 0.4 0
2.4 0.4 0
2.8 0.4 0
3.2 0.4 0
3.6 0.4 0
4 0.4 0
4.4 0.4 0
4.8 0.4 0
5.2 0.4 0
5.6 0.4 0
6 0.4 0
6.4 0.4 0
6.8 0.4 0
7.2 0.4 0
7.6 0.4 0
8 0.4 0
8.4 0.4 0
8.8 0.4 0
9.2 0.4 0
9.6 0.4 0
10 0.4 0
10.4 0.4 0
10.8 0.4 0
11.2 0.4 0
11.6 0.4 0
12 0.4 0
12.4 0.4 0
12.8 0.4 0
13.2 0.4 0
13.6 0.4 0
14 0.4 0
14.4 0.4 0
14.8 0.4 0
15.2 0.4 0
15.6 0.4 0
16 0.4 0
16.4 0.4 0
16.8 0.4 0
17.2 0.4 0
17.6 0.4 0
18 0.4 0
18.4 0.4 0
18.8 0.4 0
19.2 0.4 0
19.6 0.4 0
20 0.4 0
20.4 0.4 0
20.8 0.4 0
21.2 0.4 0
21.6 0.4 0
22 0.4 0
22.4 0.4 0
22.8 0.4 0
23.2 0.4 0
23.6 0.4 0
24 0.4 0
24.4 0.4 0
24.8 0.4 0
25.2 0.4 0
25.6 0.4 0
26 0.4 0
26.4 0.4 0
26.8 0.4 0
27.2 0.4 0
27.6 0.4 0
28 0.4 0
28.4 0.4 0
28.8 0.4 0
29.2 0.4 0
29.6 0.4 0
30 0.4 0
30.4 0.4 0
30.8 0.4 0
31.2 0.4 0
31.6 0.4 0
32 0.4 0
32.4 0.4 0
32.8 0.4 0
33.2 0.4 0
33.6 0.4 0
34 0.4 0
34.4 0.4 0
34.8 0.4 0
35.2 0.4 0
35.6 0.4 0
36 0.4 0
36.4 0.4 0
36.8 0.4 0
37.2 0.4 0
37.6 0.4 0
38 0.4 0
38.4 0.4 0
38.8 0.4 0
39.2 0.4 0
39.6 0.4 0
40 0.4 0
40.4 0.4 0
0 0.5 0
0.4 0.5 0
0.8 0.5 0
1.2 0.5 0
1.6 0.5 0
2 0.5 0
2.4 0.5 0
2.8 0.5 0
3.2 0.5 0
3.6 0.5 0
4 0.5 0
4.4 0.5 0
4.8 0.5 0
5.2 0.5 0
5.6 0.5 0
6 0.5 0
6.4 0.5 0
6.8 0.5 0
7.2 0.5 0
7.6 0.5 0
8 0.5 0
8.4 0.5 0
8.8 0.5 0
9.2 0.5 0
9.6 0.5 0
10 0.5 0
10.4 0.5 0
10.8 0.5 0
11.2 0.5 0
11.6 0.5 0
12 0.5 0
12.4 0.5 0
12.8 0.5 0
13.2 0.5 0
13.6 0.5 0
14 0.5 0
14.4 0.5 0
14.8 0.5 0
15.2 0.5 0
15.6 0.5 0
16 0.5 0
16.4 0.5 0
16.8 0.5 0
17.2 0.5 0
17.6 0.5 0
18 0.5 0
18.4 0.5 0
18.8 0.5 0
19.2 0.5 0
19.6 0.5 0
20 0.5 0
20.4 0.5 0
20.8 0.5 0
21.2 0.5 0
21.6 0.5 0
22 0.5 0
22.4 0.5 0
22.8 0.5 0
23.2 0.5 0
23.6 0.5 0
24 0.5 0
24.4 0.5 0
24.8 0.5 0
25.2 0.5 0
25.6 0.5 0
26 0.5 0
26.4 0.5 0
26.8 0.5 0
27.2 0.5 0
27.6 0.5 0
28 0.5 0
28.4 0.5 0
28.8 0.5 0
29.2 0.5 0
29.6 0.5 0
30 0.5 0
30.4 0.5 0
30.8 0.5 0
31.2 0.5 0
31.6 0.5 0
32 0.5 0
32.4 0.5 0
32.8 0.5 0
33.2 0.5 0
33.6 0.5 0
34 0.5 0
34.4 0.5 0
34.8 0.5 0
35.2 0.5 0
35.6 0.5 0
36 0.5 0
36.4 0.5 0
36.8 0.5 0
37.2 0.5 0
37.6 0.5 0
38 0.5 0
38.4 0.5 0
38.8 0.5 0
39.2 0.5 0
39.6 0.5 0
40 0.5 0
40.4 0.5 0
0 0.6 0
0.4 0.6 0
0.8 0.6 0
1.2 0.6 0
1.6 0.6 0
2 0.6 0
2.4 0.6 0
2.8 0.6 0
3.2 0.6 0
3.6 0.6 0
4 0.6 0
4.4 0.6 0
4.8 0.6 0
5.2 0.6 0
5.6 0.6 0
6 0.6 0
6.4 0.6 0
6.8 0.6 0
7.2 0.6 0
7.6 0.6 0
8 0.6 0
8.4 0.6 0
8.8 0.6 0
9.2 0.6 0
9.6 0.6 0
10 0.6 0
10.4 0.6 0
10.8 0.6 0
11.2 0.6 0
11.6 0.6 0
12 0.6 0
12.4 0.6 0
12.8 0.6 0
13.2 0.6 0
13.6 0.6 0
14 0.6 0
14.4 0.6 0
14.8 0.6 0
15.2 0.6 0
15.6 0.6 0
16 0.6 0
16.4 0.6 0
16.8 0.6 0
17.2 0.6 0
17.6 0.6 0
18 0.6 0
18.4 0.6 0
18.8 0.6 0
19.2 0.6 0
19.6 0.6 0
20 0.6 0
20.4 0.6 0
20.8 0.6 0
21.2 0.6 0
21.6 0.6 0
22 0.6 0
22.4 0.6 0
22.8 0.6 0
23.2 0.6 0
23.6 0.6 0
24 0.6 0
24.4 0.6 0
24.8 0.6 0
25.2 0.6 0
25.6 0.6 0
26 0.6 0
26.4 0.6 0
26.8 0.6 0
27.2 0.6 0
27.6 0.6 0
28 0.6 0
28.4 0.6 0
28.8 0.6 0
29.2 0.6 0
29.6 0.6 0
30 0.6 0
30.4 0.6 0
30.8 0.6 0
31.2 0.6 0
31.6 0.6 0
32 0.6 0
32.4 0.6 0
32.8 0.6 0
33.2 0.6 0
33.6 0.6 0
34 0.6 0
34.4 0.6 0
34.8 0.6 0
35.2 0.6 0
35.6 0.6 0
36 0.6 0
36.4 0.6 0
36.8 0.6 0
37.2 0.6 0
37.6 0.6 0
38 0.6 0
38.4 0.6 0
38.8 0.6 0
39.2 0.6 0
39.6 0.6 0
40 0.6 0
40.4 0.6 0
0 0.7 0
0.4 0.7 0
0.8 0.7 0
1.2 0.7 0
1.6 0.7 0
2 0.7 0
2.4 0.7 0
2.8 0.7 0
3.2 0.7 0
3.6 0.7 0
4 0.7 0
4.4 0.7 0
4.8 0.7 0
5.2 0.7 0
5.6 0.7 0
6 0.7 0
6.4 0.7 0
6.8 0.7 0
7.2 0.7 0
7.6 0.7 0
8 0.7 0
8.4 0.7 0
8.8 0.7 0
9.2 0.7 0
9.6 0.7 0
10 0.7 0
10.4 0.7 0
10.8 0.7 0
11.2 0.7 0
11.6 0.7 0
12 0.7 0
12.4 0.7 0
12.8 0.7 0
13.2 0.7 0
13.6 0.7 0
14 0.7 0
14.4 0.7 0
14.8 0.7 0
15.2 0.7 0
15.6 0.7 0
16 0.7 0
16.4 0.7 0
16.8 0.7 0
17.2 0.7 0
17.6 0.7 0
18 0.7 0
18.4 0.7 0
18.8 0.7 0
19.2 0.7 0
19.6 0.7 0
20 0.7 0
20.4 0.7 0
20.8 0.7 0
21.2 0.7 0
21.6 0.7 0
22 0.7 0
22.4 0.7 0
22.8 0.7 0
23.2 0.7 0
23.6 0.7 0
24 0.7 0
24.4 0.7 0
24.8 0.7 0
25.2 0.7 0
25.6 0.7 0
26 0.7 0
26.4 0.7 0
26.8 0.7 0
27.2 0.7 0
27.6 0.7 0
28 0.7 0
28.4 0.7 0
28.8 0.7 0
29.2 0.7 0
29.6 0.7 0
30 0.7 0
30.4 0.7 0
30.8 0.7 0
31.2 0.7 0
31.6 0.7 0
32 0.7 0
32.4 0.7 0
32.8 0.7 0
33.2 0.7 0
33.6 0.7 0
34 0.7 0
34.4 0.7 0
34.8 0.7 0
35.2 0.7 0
35.6 0.7 0
36 0.7 0
36.4 0.7 0
36.8 0.7 0
37.2 0.7 0
37.6 0.7 0
38 0.7 0
38.4 0.7 0
38.8 0.7 0
39.2 0.7 0
39.6 0.7 0
40 0.7 0
40.4 0.7 0
0 0.8 0
0.4 0.8 0
0.8 0.8 0
1.2 0.8 0
1.6 0.8 0
2 0.8 0
2.4 0.8 0
2.8 0.8 0
3.2 0.8 0
3.6 0.8 0
4 0.8 0
4.4 0.8 0
4.8 0.8 0
5.2 0.8 0
5.6 0.8 0
6 0.8 0
6.4 0.8 0
6.8 0.8 0
7.2 0.8 0
7.6 0.8 0
8 0.8 0
8.4 0.8 0
8.8 0.8 0
9.2 0.8 0
9.6 0.8 0
10 0.8 0
10.4 0.8 0
10.8 0.8 0
11.2 0.8 0
11.6 0.8 0
12 0.8 0
12.4 0.8 0
12.8 0.8 0
13.2 0.8 0
13.6 0.8 0
14 0.8 0
14.4 0.8 0
14.8 0.8 0
15.2 0.8 0
15.6 0.8 0
16 0.8 0
16.4 0.8 0
16.8 0.8 0
17.2 0.8 0
17.6 0.8 0
18 0.8 0
18.4 0.8 0
18.8 0.8 0
19.2 0.8 0
19.6 0.8 0
20 0.8 0
20.4 0.8 0
20.8 0.8 0
21.2 0.8 0
21.6 0.8 0
22 0.8 0
22.4 0.8 0
22.8 0.8 0
23.2 0.8 0
23.6 0.8 0
24 0.8 0
24.4 0.8 0
24.8 0.8 0
25.2 0.8 0
25.6 0.8 0
26 0.8 0
26.4 0.8 0
26.8 0.8 0
27.2 0.8 0
27.6 0.8 0
28 0.8 0
28.4 0.8 0
28.8 0.8 0
29.2 0.8 0
29.6 0.8 0
30 0.8 0
30.4 0.8 0
30.8 0.8 0
31.2 0.8 0
31.6 0.8 0
32 0.8 0
32.4 0.8 0
32.8 0.8 0
33.2 0.8 0
33.6 0.8 0
34 0.8 0
34.4 0.8 0
34.8 0.8 0
35.2 0.8 0
35.6 0.8 0
36 0.8 0
36.4 0.8 0
36.8 0.8 0
37.2 0.8 0
37.6 0.8 0
38 0.8 0
38.4 0.8 0
38.8 0.8 0
39.2 0.8 0
39.6 0.8 0
40 0.8 0
40.4 0.8 0
0 0.9 0
0.4 0.9 0
0.8 0.9 0
1.2 0.9 0
1.6 0.9 0
2 0.9 0
2.4 0.9 0
2.8 0.9 0
3.2 0.9 0
3.6 0.9 0
4 0.9 0
4.4 0.9 0
4.8 0.9 0
5.2 0.9 0
5.6 0.9 0
6 0.9 0
6.4 0.9 0
6.8 0.9 0
7.2 0.9 0
7.6 0.9 0
8 0.9 0
8.4 0.9 0
8.8 0.9 0
9.2 0.9 0
9.6 0.9 0
10 0.9 0
10.4 0.9 0
10.8 0.9 0
11.2 0.9 0
11.6 0.9 0
12 0.9 0
12.4 0.9 0
12.8 0.9 0
13.2 0.9 0
13.6 0.9 0
14 0.9 0
14.4 0.9 0
14.8 0.9 0
15.2 0.9 0
15.6 0.9 0
16 0.9 0
16.4 0.9 0
16.8 0.9 0
17.2 0.9 0
17.6 0.9 0
18 0.9 0
18.4 0.9 0
18.8 0.9 0
19.2 0.9 0
19.6 0.9 0
20 0.9 0
20.4 0.9 0
20.8 0.9 0
21.2 0.9 0
21.6 0.9 0
22 0.9 0
22.4 0.9 0
22.8 0.9 0
23.2 0.9 0
23.6 0.9 0
24 0.9 0
24.4 0.9 0
24.8 0.9 0
25.2 0.9 0
25.6 0.9 0
26 0.9 0
26.4 0.9 0
26.8 0.9 0
27.2 0.9 0
27.6 0.9 0
28 0.9 0
28.4 0.9 0
28.8 0.9 0
29.2 0.9 0
29.6 0.9 0
30 0.9 0
30.4 0.9 0
30.8 0.9 0
31.2 0.9 0
31.6 0.9 0
32 0.9 0
32.4 0.9 0
32.8 0.9 0
33.2 0.9 0
33.6 0.9 0
34 0.9 0
34.4 0.9 0
34.8 0.9 0
35.2 0.9 0
35.6 0.9 0
36 0.9 0
36.4 0.9 0
36.8 0.9 0
37.2 0.9 0
37.6 0.9 0
38 0.9 0
38.4 0.9 0
38.8 0.9 0
39.2 0.9 0
39.6 0.9 0
40 0.9 0
40.4 0.9 0
0 1 0
0.4 1 0
0.8 1 0
1.2 1 0
1.6 1 0
2 1 0
2.4 1 0
2.8 1 0
3.2 1 0
3.6 1 0
4 1 0
4.4 1 0
4.8 1 0
5.2 1 0
5.6 1 0
6 1 0
6.4 1 0
6.8 1 0
7.2 1 0
7.6 1 0
8 1 0
8.4 1 0
8.8 1 0
9.2 1 0
9.6 1 0
10 1 0
10.4 1 0
10.8 1 0
11.2 1 0
11.6 1 0
12 1 0
12.4 1 0
12.8 1 0
13.2 1 0
13.6 1 0
14 1 0
14.4 1 0
14.8 1 0
15.2 1 0
15.6 1 0
16 1 0
16.4 1 0
16.8 1 0
17.2 1 0
17.6 1 0
18 1 0
18.4 1 0
18.8 1 0
19.2 1 0
19.6 1 0
20 1 0
20.4 1 0
20.8 1 0
21.2 1 0
21.6 1 0
22 1 0
22.4 1 0
22.8 1 0
23.2 1 0
23.6 1 0
24 1 0
24.4 1 0
24.8 1 0
25.2 1 0
25.6 1 0
26 1 0
26.4 1 0
26.8 1 0
27.2 1 0
27.6 1 0
28 1 0
28.4 1 0
28.8 1 0
29.2 1 0
29.6 1 0
30 1 0
30.4 1 0
30.8 1 0
31.2 1 0
31.6 1 0
32 1 0
32.4 1 0
32.8 1 0
33.2 1 0
33.6 1 0
34 1 0
34.4 1 0
34.8 1 0
35.2 1 0
35.6 1 0
36 1 0
36.4 1 0
36.8 1 0
37.2 1 0
37.6 1 0
38 1 0
38.4 1 0
38.8 1 0
39.2 1 0
39.6 1 0
40 1 0
40.4 1 0
0 1.1 0
0.4 1.1 0
0.8 1.1 0
1.2 1.1 0
1.6 1.1 0
2 1.1 0
2.4 1.1 0
2.8 1.1 0
3.2 1.1 0
3.6 1.1 0
4 1.1 0
4.4 1.1 0
4.8 1.1 0
5.2 1.1 0
5.6 1.1 0
6 1.1 0
6.4 1.1 0
6.8 1.1 0
7.2 1.1 0
7.6 1.1 0
8 1.1 0
8.4 1.1 0
8.8 1.1 0
9.2 1.1 0
9.6 1.1 0
10 1.1 0
10.4 1.1 0
10.8 1.1 0
11.2 1.1 0
11.6 1.1 0
12 1.1 0
12.4 1.1 0
12.8 1.1 0
13.2 1.1 0
13.6 1.1 0
14 1.1 0
14.4 1.1 0
14.8 1.1 0
15.2 1.1 0
15.6 1.1 0
16 1.1 0
16.4 1.1 0
16.8 1.1 0
17.2 1.1 0
17.6 1.1 0
18 1.1 0
18.4 1.1 0
18.8 1.1 0
19.2 1.1 0
19.6 1.1 0
20 1.1 0
20.4 1.1 0
20.8 1.1 0
21.2 1.1 0
21.6 1.1 0
22 1.1 0
22.4 1.1 0
22.8 1.1 0
23.2 1.1 0
23.6 1.1 0
24 1.1 0
24.4 1.1 0
24.8 1.1 0
25.2 1.1 0
25.6 1.1 0
26 1.1 0
26.4 1.1 0
26.8 1.1 0
27.2 1.1 0
27.6 1.1 0
28 1.1 0
28.4 1.1 0
28.8 1.1 0
29.2 1.1 0
29.6 1.1 0
30 1.1 0
30.4 1.1 0
30.8 1.1 0
31.2 1.1 0
31.6 1.1 0
32 1.1 0
32.4 1.1 0
32.8 1.1 0
33.2 1.1 0
33.6 1.1 0
34 1.1 0
34.4 1.1 0
34.8 1.1 0
35.2 1.1 0
35.6 1.1 0
36 1.1 0
36.4 1.1 0
36.8 1.1 0
37.2 1.1 0
37.6 1.1 0
38 1.1 0
38.4 1.1 0
38.8 1.1 0
39.2 1.1 0
39.6 1.1 0
40 1.1 0
40.4 1.1 0

POINT_DATA 1224

SCALARS u double
LOOKUP_TABLE default
-1
-0.80718
-0.659027
-0.550101
-0.474363
-0.423321
-0.389
-0.365438
-0.348706
-0.336385
-0.327021
-0.319734
-0.313975
-0.309378
-0.305692
-0.302731
-0.300355
-0.298453
-0.296939
-0.295741
-0.2948
-0.294071
-0.293512
-0.293091
-0.292781
-0.292559
-0.292408
-0.292312
-0.29226
-0.292241
-0.292249
-0.292278
-0.292329
-0.292392
-0.292465
-0.292542
-0.29262
-0.292698
-0.292773
-0.292842
-0.292905
-0.292961
-0.29301
-0.29305
-0.293084
-0.29311
-0.29313
-0.293146
-0.293157
-0.293164
-0.293169
-0.293172
-0.293173
-0.293174
-0.293174
-0.293174
-0.293173
-0.293172
-0.293172
-0.293171
-0.293171
-0.293171
-0.29317
-0.29317
-0.29317
-0.29317
-0.293169
-0.293169
-0.293169
-0.293169
-0.293169
-0.293169
-0.293169
-0.293169
-0.293169
-0.293169
-0.293169
-0.293169
-0.293169
-0.293169
-0.293169
-0.293169
-0.293169
-0.293169
-0.293169
-0.293169
-0.293169
-0.293169
-0.293169
-0.293169
-0.29317
-0.293171
-0.293181
-0.293202
-0.293336
-0.293656
-0.295532
-0.300302
-0.327503
-0.371001
-1
-0.371001
1
0.80718
0.659027
0.550101
0.474363
0.423321
0.389
0.365438
0.348706
0.336385
0.327021
0.319734
0.313975
0.309378
0.305692
0.302731
0.300355
0.298453
0.296939
0.295741
0.2948
0.294071
0.293512
0.293091
0.29278
0.292559
0.292408
0.292312
0.29226
0.292241
0.292248
0.292278
0.292328
0.292391
0.292463
0.29254
0.292619
0.292697
0.292771
0.29284
0.292904
0.29296
0.293008
0.293049
0.293082
0.293108
0.293129
0.293144
0.293155
0.293163
0.293168
0.293171
0.293172
0.293173
0.293173
0.293172
0.293172
0.293171
0.293171
0.29317
0.29317
0.293169
0.293169
0.293169
0.293168
0.293168
0.293168
0.293168
0.293168
0.293168
0.293168
0.293168
0.293168
0.293168
0.293168
0.293168
0.293168
0.293168
0.293168
0.293168
0.293168
0.293168
0.293168
0.293168
0.293168
0.293168
0.293168
0.293168
0.293168
0.293168
0.293169
0.29317
0.293179
0.2932
0.293334
0.293655
0.295531
0.300301
0.327502
0.371001
1
0.371001
1
1.02373
1.02809
1.01223
0.983935
0.950688
0.917729
0.887957
0.86251
0.841467
0.824393
0.810677
0.799714
0.790972
0.784012
0.778481
0.774096
0.770634
0.767916
0.765797
0.764162
0.762915
0.76198
0.761294
0.760804
0.76047
0.760257
0.760138
0.760091
0.760099
0.76015
0.760231
0.760337
0.760464
0.760608
0.760761
0.760918
0.761075
0.761227
0.76137
0.761501
0.761618
0.761719
0.761804
0.761873
0.761928
0.76197
0.762001
0.762023
0.762038
0.762047
0.762053
0.762055
0.762056
0.762055
0.762054
0.762053
0.762051
0.76205
0.762049
0.762048
0.762047
0.762047
0.762046
0.762046
0.762045
0.762045
0.762045
0.762045
0.762045
0.762045
0.762045
0.762045
0.762045
0.762045
0.762045
0.762045
0.762044
0.762044
0.762044
0.762044
0.762044
0.762044
0.762044
0.762044
0.762044
0.762044
0.762044
0.762044
0.762044
0.762045
0.762045
0.762049
0.762055
0.76211
0.762186
0.763056
0.763865
0.777575
0.791903
1
0.791906
1
1.04017
1.08473
1.11989
1.14301
1.15539
1.15973
1.15877
1.15476
1.1493
1.14344
1.13781
1.13272
1.12832
1.12461
1.12157
1.11911
1.11717
1.11565
1.11449
1.11361
1.11297
1.11251
1.1122
1.112
1.11188
1.11183
1.11182
1.11185
1.1119
1.11197
1.11206
1.11214
1.11223
1.11232
1.11242
1.11251
1.11261
1.11271
1.1128
1.11289
1.11297
1.11304
1.1131
1.11316
1.1132
1.11324
1.11326
1.11328
1.11329
1.1133
1.11331
1.11331
1.11331
1.11331
1.11331
1.11331
1.1133
1.1133
1.1133
1.1133
1.1133
1.1133
1.1133
1.1133
1.1133
1.1133
1.1133
1.1133
1.1133
1.1133
1.1133
1.1133
1.1133
1.1133
1.1133
1.1133
1.1133
1.1133
1.1133
1.1133
1.1133
1.1133
1.1133
1.1133
1.1133
1.1133
1.1133
1.1133
1.1133
1.1133
1.1133
1.1133
1.11329
1.11329
1.11317
1.11314
1.11165
1.10954
1.10217
1
1.10217
1
1.03766
1.08576
1.13255
1.17421
1.20955
1.23861
1.26203
1.28064
1.29531
1.30682
1.31583
1.32289
1.32843
1.33279
1.33622
1.33893
1.34107
1.34276
1.34409
1.34513
1.34594
1.34656
1.34704
1.34739
1.34764
1.34782
1.34794
1.34801
1.34804
1.34805
1.34803
1.34799
1.34793
1.34786
1.34778
1.3477
1.34761
1.34753
1.34745
1.34738
1.34732
1.34727
1.34723
1.34719
1.34716
1.34714
1.34713
1.34712
1.34711
1.34711
1.34711
1.3471
1.3471
1.3471
1.34711
1.34711
1.34711
1.34711
1.34711
1.34711
1.34711
1.34711
1.34711
1.34711
1.34711
1.34711
1.34711
1.34711
1.34711
1.34711
1.34711
1.34711
1.34711
1.34711
1.34711
1.34711
1.34711
1.34711
1.34711
1.34711
1.34711
1.34711
1.34711
1.34711
1.34711
1.34711
1.34711
1.34711
1.34711
1.34711
1.34711
1.3471
1.3471
1.34704
1.34694
1.346
1.34499
1.32914
1.32606
1
1.32606
1
1.03576
1.08266
1.1305
1.17621
1.21854
1.25697
1.29129
1.32149
1.34769
1.37013
1.38912
1.405
1.41816
1.42896
1.43773
1.44479
1.45042
1.45486
1.45832
1.46099
1.463
1.4645
1.46558
1.46633
1.46683
1.46713
1.46727
1.46731
1.46725
1.46714
1.46698
1.46679
1.46657
1.46633
1.46609
1.46583
1.46558
1.46533
1.4651
1.46488
1.46467
1.4645
1.46434
1.46421
1.46411
1.46403
1.46396
1.46392
1.46388
1.46386
1.46385
1.46384
1.46384
1.46384
1.46384
1.46385
1.46385
1.46385
1.46385
1.46385
1.46386
1.46386
1.46386
1.46386
1.46386
1.46386
1.46386
1.46386
1.46386
1.46386
1.46386
1.46386
1.46386
1.46386
1.46386
1.46386
1.46386
1.46386
1.46386
1.46386
1.46386
1.46386
1.46386
1.46386
1.46386
1.46386
1.46386
1.46386
1.46386
1.46386
1.46386
1.46385
1.46385
1.46374
1.46376
1.46208
1.46228
1.43773
1.44403
1
1.44403
1
1.03576
1.08266
1.1305
1.17621
1.21854
1.25697
1.29129
1.32149
1.34769
1.37013
1.38912
1.405
1.41816
1.42896
1.43773
1.44479
1.45042
1.45486
1.45832
1.46099
1.463
1.4645
1.46558
1.46633
1.46683
1.46713
1.46727
1.46731
1.46725
1.46714
1.46698
1.46679
1.46657
1.46633
1.46609
1.46583
1.46558
1.46533
1.4651
1.46488
1.46467
1.4645
1.46434
1.46421
1.46411
1.46403
1.46396
1.46392
1.46388
1.46386
1.46385
1.46384
1.46384
1.46384
1.46384
1.46385
1.46385
1.46385
1.46385
1.46385
1.46386
1.46386
1.46386
1.46386
1.46386
1.46386
1.46386
1.46386
1.46386
1.46386
1.46386
1.46386
1.46386
1.46386
1.46386
1.46386
1.46386
1.46386
1.46386
1.46386
1.46386
1.46386
1.46386
1.46386
1.46386
1.46386
1.46386
1.46386
1.46386
1.46386
1.46386
1.46385
1.46385
1.46374
1.46376
1.46208
1.46228
1.43773
1.44403
1
1.44403
1
1.03766
1.08576
1.13255
1.17421
1.20955
1.23861
1.26203
1.28064
1.29531
1.30682
1.31583
1.32289
1.32843
1.33279
1.33622
1.33893
1.34107
1.34276
1.34409
1.34513
1.34594
1.34656
1.34704
1.34739
1.34764
1.34782
1.34794
1.34801
1.34805
1.34805
1.34803
1.34799
1.34793
1.34786
1.34778
1.3477
1.34761
1.34753
1.34745
1.34738
1.34732
1.34727
1.34723
1.34719
1.34716
1.34714
1.34713
1.34712
1.34711
1.34711
1.34711
1.3471
1.3471
1.3471
1.34711
1.34711
1.34711
1.34711
1.34711
1.34711
1.34711
1.34711
1.34711
1.34711
1.34711
1.34711
1.34711
1.34711
1.34711
1.34711
1.34711
1.34711
1.34711
1.34711
1.34711
1.34711
1.34711
1.34711
1.34711
1.34711
1.34711
1.34711
1.34711
1.34711
1.34711
1.34711
1.34711
1.34711
1.34711
1.34711
1.34711
1.3471
1.3471
1.34704
1.34694
1.346
1.34499
1.32913
1.32606
1
1.32606
1
1.04017
1.08473
1.11989
1.14301
1.15539
1.15973
1.15877
1.15476
1.1493
1.14345
1.13781
1.13272
1.12832
1.12461
1.12157
1.11911
1.11717
1.11565
1.11449
1.11361
1.11297
1.11251
1.1122
1.112
1.11188
1.11183
1.11182
1.11185
1.11191
1.11198
1.11206
1.11214
1.11223
1.11232
1.11242
1.11252
1.11261
1.11271
1.1128
1.11289
1.11297
1.11304
1.1131
1.11316
1.1132
1.11323
1.11326
1.11328
1.11329
1.1133
1.11331
1.11331
1.11331
1.11331
1.11331
1.11331
1.11331
1.1133
1.1133
1.1133
1.1133
1.1133
1.1133
1.1133
1.1133
1.1133
1.1133
1.1133
1.1133
1.1133
1.1133
1.1133
1.1133
1.1133
1.1133
1.1133
1.1133
1.1133
1.1133
1.1133
1.1133
1.1133
1.1133
1.1133
1.1133
1.1133
1.1133
1.1133
1.1133
1.1133
1.1133
1.1133
1.11329
1.11329
1.11317
1.11314
1.11165
1.10954
1.10217
1
1.10217
1
1.02373
1.02809
1.01223
0.983935
0.950688
0.917729
0.887957
0.86251
0.841467
0.824393
0.810677
0.799715
0.790973
0.784013
0.778481
0.774096
0.770634
0.767916
0.765798
0.764162
0.762916
0.761981
0.761294
0.760805
0.760471
0.760258
0.760139
0.760092
0.760101
0.760151
0.760232
0.760338
0.760466
0.760609
0.760762
0.760919
0.761076
0.761228
0.76137
0.761501
0.761617
0.761718
0.761803
0.761873
0.761928
0.76197
0.762001
0.762023
0.762038
0.762047
0.762053
0.762055
0.762056
0.762055
0.762054
0.762053
0.762052
0.76205
0.762049
0.762048
0.762047
0.762047
0.762046
0.762046
0.762045
0.762045
0.762045
0.762045
0.762045
0.762044
0.762044
0.762044
0.762044
0.762044
0.762044
0.762044
0.762044
0.762044
0.762044
0.762044
0.762044
0.762044
0.762044
0.762044
0.762044
0.762044
0.762044
0.762044
0.762044
0.762044
0.762044
0.762048
0.762054
0.762109
0.762185
0.763056
0.763864
0.777574
0.791903
1
0.791905
1
0.80718
0.659027
0.550101
0.474363
0.423321
0.389001
0.365438
0.348706
0.336385
0.327021
0.319735
0.313975
0.309379
0.305692
0.302731
0.300355
0.298453
0.296939
0.295741
0.294801
0.294071
0.293512
0.293091
0.292781
0.292559
0.292408
0.292313
0.29226
0.292241
0.292249
0.292278
0.292328
0.292392
0.292464
0.292541
0.292619
0.292697
0.292771
0.292841
0.292904
0.29296
0.293008
0.293049
0.293082
0.293108
0.293129
0.293144
0.293155
0.293163
0.293168
0.293171
0.293172
0.293173
0.293173
0.293172
0.293172
0.293171
0.293171
0.29317
0.29317
0.293169
0.293169
0.293169
0.293168
0.293168
0.293168
0.293168
0.293168
0.293168
0.293168
0.293168
0.293168
0.293168
0.293168
0.293168
0.293168
0.293168
0.293168
0.293168
0.293168
0.293168
0.293168
0.293167
0.293167
0.293167
0.293167
0.293167
0.293167
0.293168
0.293168
0.29317
0.293179
0.2932
0.293334
0.293654
0.295531
0.300301
0.327502
0.371001
1
0.371001
-1
-0.80718
-0.659027
-0.550101
-0.474363
-0.423321
-0.389001
-0.365438
-0.348706
-0.336385
-0.327021
-0.319735
-0.313975
-0.309379
-0.305692
-0.302731
-0.300355
-0.298453
-0.296939
-0.295741
-0.294801
-0.294071
-0.293512
-0.293091
-0.292781
-0.292559
-0.292408
-0.292313
-0.29226
-0.292242
-0.292249
-0.292279
-0.292329
-0.292393
-0.292465
-0.292542
-0.292621
-0.292698
-0.292773
-0.292842
-0.292905
-0.292961
-0.29301
-0.29305
-0.293083
-0.29311
-0.29313
-0.293146
-0.293157
-0.293164
-0.293169
-0.293172
-0.293173
-0.293174
-0.293174
-0.293174
-0.293173
-0.293173
-0.293172
-0.293171
-0.293171
-0.293171
-0.29317
-0.29317
-0.29317
-0.29317
-0.293169
-0.293169
-0.293169
-0.293169
-0.293169
-0.293169
-0.293169
-0.293169
-0.293169
-0.293169
-0.293169
-0.293169
-0.293169
-0.293169
-0.293169
-0.293169
-0.293169
-0.293169
-0.293169
-0.293169
-0.293169
-0.293169
-0.293169
-0.293169
-0.293169
-0.293171
-0.29318
-0.293201
-0.293335
-0.293655
-0.295532
-0.300302
-0.327503
-0.371001
-1
-0.371001
