# vtk DataFile Version 2.0
FlowField
ASCII
DATASET STRUCTURED_GRID
DIMENSIONS 102 1 12 
POINTS 1224 double
0 0 0
0.4 0 0
0.8 0 0
1.2 0 0
1.6 0 0
2 0 0
2.4 0 0
2.8 0 0
3.2 0 0
3.6 0 0
4 0 0
4.4 0 0
4.8 0 0
5.2 0 0
5.6 0 0
6 0 0
6.4 0 0
6.8 0 0
7.2 0 0
7.6 0 0
8 0 0
8.4 0 0
8.8 0 0
9.2 0 0
9.6 0 0
10 0 0
10.4 0 0
10.8 0 0
11.2 0 0
11.6 0 0
12 0 0
12.4 0 0
12.8 0 0
13.2 0 0
13.6 0 0
14 0 0
14.4 0 0
14.8 0 0
15.2 0 0
15.6 0 0
16 0 0
16.4 0 0
16.8 0 0
17.2 0 0
17.6 0 0
18 0 0
18.4 0 0
18.8 0 0
19.2 0 0
19.6 0 0
20 0 0
20.4 0 0
20.8 0 0
21.2 0 0
21.6 0 0
22 0 0
22.4 0 0
22.8 0 0
23.2 0 0
23.6 0 0
24 0 0
24.4 0 0
24.8 0 0
25.2 0 0
25.6 0 0
26 0 0
26.4 0 0
26.8 0 0
27.2 0 0
27.6 0 0
28 0 0
28.4 0 0
28.8 0 0
29.2 0 0
29.6 0 0
30 0 0
30.4 0 0
30.8 0 0
31.2 0 0
31.6 0 0
32 0 0
32.4 0 0
32.8 0 0
33.2 0 0
33.6 0 0
34 0 0
34.4 0 0
34.8 0 0
35.2 0 0
35.6 0 0
36 0 0
36.4 0 0
36.8 0 0
37.2 0 0
37.6 0 0
38 0 0
38.4 0 0
38.8 0 0
39.2 0 0
39.6 0 0
40 0 0
40.4 0 0
0 0.1 0
0.4 0.1 0
0.8 0.1 0
1.2 0.1 0
1.6 0.1 0
2 0.1 0
2.4 0.1 0
2.8 0.1 0
3.2 0.1 0
3.6 0.1 0
4 0.1 0
4.4 0.1 0
4.8 0.1 0
5.2 0.1 0
5.6 0.1 0
6 0.1 0
6.4 0.1 0
6.8 0.1 0
7.2 0.1 0
7.6 0.1 0
8 0.1 0
8.4 0.1 0
8.8 0.1 0
9.2 0.1 0
9.6 0.1 0
10 0.1 0
10.4 0.1 0
10.8 0.1 0
11.2 0.1 0
11.6 0.1 0
12 0.1 0
12.4 0.1 0
12.8 0.1 0
13.2 0.1 0
13.6 0.1 0
14 0.1 0
14.4 0.1 0
14.8 0.1 0
15.2 0.1 0
15.6 0.1 0
16 0.1 0
16.4 0.1 0
16.8 0.1 0
17.2 0.1 0
17.6 0.1 0
18 0.1 0
18.4 0.1 0
18.8 0.1 0
19.2 0.1 0
19.6 0.1 0
20 0.1 0
20.4 0.1 0
20.8 0.1 0
21.2 0.1 0
21.6 0.1 0
22 0.1 0
22.4 0.1 0
22.8 0.1 0
23.2 0.1 0
23.6 0.1 0
24 0.1 0
24.4 0.1 0
24.8 0.1 0
25.2 0.1 0
25.6 0.1 0
26 0.1 0
26.4 0.1 0
26.8 0.1 0
27.2 0.1 0
27.6 0.1 0
28 0.1 0
28.4 0.1 0
28.8 0.1 0
29.2 0.1 0
29.6 0.1 0
30 0.1 0
30.4 0.1 0
30.8 0.1 0
31.2 0.1 0
31.6 0.1 0
32 0.1 0
32.4 0.1 0
32.8 0.1 0
33.2 0.1 0
33.6 0.1 0
34 0.1 0
34.4 0.1 0
34.8 0.1 0
35.2 0.1 0
35.6 0.1 0
36 0.1 0
36.4 0.1 0
36.8 0.1 0
37.2 0.1 0
37.6 0.1 0
38 0.1 0
38.4 0.1 0
38.8 0.1 0
39.2 0.1 0
39.6 0.1 0
40 0.1 0
40.4 0.1 0
0 0.2 0
0.4 0.2 0
0.8 0.2 0
1.2 0.2 0
1.6 0.2 0
2 0.2 0
2.4 0.2 0
2.8 0.2 0
3.2 0.2 0
3.6 0.2 0
4 0.2 0
4.4 0.2 0
4.8 0.2 0
5.2 0.2 0
5.6 0.2 0
6 0.2 0
6.4 0.2 0
6.8 0.2 0
7.2 0.2 0
7.6 0.2 0
8 0.2 0
8.4 0.2 0
8.8 0.2 0
9.2 0.2 0
9.6 0.2 0
10 0.2 0
10.4 0.2 0
10.8 0.2 0
11.2 0.2 0
11.6 0.2 0
12 0.2 0
12.4 0.2 0
12.8 0.2 0
13.2 0.2 0
13.6 0.2 0
14 0.2 0
14.4 0.2 0
14.8 0.2 0
15.2 0.2 0
15.6 0.2 0
16 0.2 0
16.4 0.2 0
16.8 0.2 0
17.2 0.2 0
17.6 0.2 0
18 0.2 0
18.4 0.2 0
18.8 0.2 0
19.2 0.2 0
19.6 0.2 0
20 0.2 0
20.4 0.2 0
20.8 0.2 0
21.2 0.2 0
21.6 0.2 0
22 0.2 0
22.4 0.2 0
22.8 0.2 0
23.2 0.2 0
23.6 0.2 0
24 0.2 0
24.4 0.2 0
24.8 0.2 0
25.2 0.2 0
25.6 0.2 0
26 0.2 0
26.4 0.2 0
26.8 0.2 0
27.2 0.2 0
27.6 0.2 0
28 0.2 0
28.4 0.2 0
28.8 0.2 0
29.2 0.2 0
29.6 0.2 0
30 0.2 0
30.4 0.2 0
30.8 0.2 0
31.2 0.2 0
31.6 0.2 0
32 0.2 0
32.4 0.2 0
32.8 0.2 0
33.2 0.2 0
33.6 0.2 0
34 0.2 0
34.4 0.2 0
34.8 0.2 0
35.2 0.2 0
35.6 0.2 0
36 0.2 0
36.4 0.2 0
36.8 0.2 0
37.2 0.2 0
37.6 0.2 0
38 0.2 0
38.4 0.2 0
38.8 0.2 0
39.2 0.2 0
39.6 0.2 0
40 0.2 0
40.4 0.2 0
0 0.3 0
0.4 0.3 0
0.8 0.3 0
1.2 0.3 0
1.6 0.3 0
2 0.3 0
2.4 0.3 0
2.8 0.3 0
3.2 0.3 0
3.6 0.3 0
4 0.3 0
4.4 0.3 0
4.8 0.3 0
5.2 0.3 0
5.6 0.3 0
6 0.3 0
6.4 0.3 0
6.8 0.3 0
7.2 0.3 0
7.6 0.3 0
8 0.3 0
8.4 0.3 0
8.8 0.3 0
9.2 0.3 0
9.6 0.3 0
10 0.3 0
10.4 0.3 0
10.8 0.3 0
11.2 0.3 0
11.6 0.3 0
12 0.3 0
12.4 0.3 0
12.8 0.3 0
13.2 0.3 0
13.6 0.3 0
14 0.3 0
14.4 0.3 0
14.8 0.3 0
15.2 0.3 0
15.6 0.3 0
16 0.3 0
16.4 0.3 0
16.8 0.3 0
17.2 0.3 0
17.6 0.3 0
18 0.3 0
18.4 0.3 0
18.8 0.3 0
19.2 0.3 0
19.6 0.3 0
20 0.3 0
20.4 0.3 0
20.8 0.3 0
21.2 0.3 0
21.6 0.3 0
22 0.3 0
22.4 0.3 0
22.8 0.3 0
23.2 0.3 0
23.6 0.3 0
24 0.3 0
24.4 0.3 0
24.8 0.3 0
25.2 0.3 0
25.6 0.3 0
26 0.3 0
26.4 0.3 0
26.8 0.3 0
27.2 0.3 0
27.6 0.3 0
28 0.3 0
28.4 0.3 0
28.8 0.3 0
29.2 0.3 0
29.6 0.3 0
30 0.3 0
30.4 0.3 0
30.8 0.3 0
31.2 0.3 0
31.6 0.3 0
32 0.3 0
32.4 0.3 0
32.8 0.3 0
33.2 0.3 0
33.6 0.3 0
34 0.3 0
34.4 0.3 0
34.8 0.3 0
35.2 0.3 0
35.6 0.3 0
36 0.3 0
36.4 0.3 0
36.8 0.3 0
37.2 0.3 0
37.6 0.3 0
38 0.3 0
38.4 0.3 0
38.8 0.3 0
39.2 0.3 0
39.6 0.3 0
40 0.3 0
40.4 0.3 0
0 0.4 0
0.4 0.4 0
0.8 0.4 0
1.2 0.4 0
1.6 0.4 0
2 0.4 0
2.4 0.4 0
2.8 0.4 0
3.2 0.4 0
3.6 0.4 0
4 0.4 0
4.4 0.4 0
4.8 0.4 0
5.2 0.4 0
5.6 0.4 0
6 0.4 0
6.4 0.4 0
6.8 0.4 0
7.2 0.4 0
7.6 0.4 0
8 0.4 0
8.4 0.4 0
8.8 0.4 0
9.2 0.4 0
9.6 0.4 0
10 0.4 0
10.4 0.4 0
10.8 0.4 0
11.2 0.4 0
11.6 0.4 0
12 0.4 0
12.4 0.4 0
12.8 0.4 0
13.2 0.4 0
13.6 0.4 0
14 0.4 0
14.4 0.4 0
14.8 0.4 0
15.2 0.4 0
15.6 0.4 0
16 0.4 0
16.4 0.4 0
16.8 0.4 0
17.2 0.4 0
17.6 0.4 0
18 0.4 0
18.4 0.4 0
18.8 0.4 0
19.2 0.4 0
19.6 0.4 0
20 0.4 0
20.4 0.4 0
20.8 0.4 0
21.2 0.4 0
21.6 0.4 0
22 0.4 0
22.4 0.4 0
22.8 0.4 0
23.2 0.4 0
23.6 0.4 0
24 0.4 0
24.4 0.4 0
24.8 0.4 0
25.2 0.4 0
25.6 0.4 0
26 0.4 0
26.4 0.4 0
26.8 0.4 0
27.2 0.4 0
27.6 0.4 0
28 0.4 0
28.4 0.4 0
28.8 0.4 0
29.2 0.4 0
29.6 0.4 0
30 0.4 0
30.4 0.4 0
30.8 0.4 0
31.2 0.4 0
31.6 0.4 0
32 0.4 0
32.4 0.4 0
32.8 0.4 0
33.2 0.4 0
33.6 0.4 0
34 0.4 0
34.4 0.4 0
34.8 0.4 0
35.2 0.4 0
35.6 0.4 0
36 0.4 0
36.4 0.4 0
36.8 0.4 0
37.2 0.4 0
37.6 0.4 0
38 0.4 0
38.4 0.4 0
38.8 0.4 0
39.2 0.4 0
39.6 0.4 0
40 0.4 0
40.4 0.4 0
0 0.5 0
0.4 0.5 0
0.8 0.5 0
1.2 0.5 0
1.6 0.5 0
2 0.5 0
2.4 0.5 0
2.8 0.5 0
3.2 0.5 0
3.6 0.5 0
4 0.5 0
4.4 0.5 0
4.8 0.5 0
5.2 0.5 0
5.6 0.5 0
6 0.5 0
6.4 0.5 0
6.8 0.5 0
7.2 0.5 0
7.6 0.5 0
8 0.5 0
8.4 0.5 0
8.8 0.5 0
9.2 0.5 0
9.6 0.5 0
10 0.5 0
10.4 0.5 0
10.8 0.5 0
11.2 0.5 0
11.6 0.5 0
12 0.5 0
12.4 0.5 0
12.8 0.5 0
13.2 0.5 0
13.6 0.5 0
14 0.5 0
14.4 0.5 0
14.8 0.5 0
15.2 0.5 0
15.6 0.5 0
16 0.5 0
16.4 0.5 0
16.8 0.5 0
17.2 0.5 0
17.6 0.5 0
18 0.5 0
18.4 0.5 0
18.8 0.5 0
19.2 0.5 0
19.6 0.5 0
20 0.5 0
20.4 0.5 0
20.8 0.5 0
21.2 0.5 0
21.6 0.5 0
22 0.5 0
22.4 0.5 0
22.8 0.5 0
23.2 0.5 0
23.6 0.5 0
24 0.5 0
24.4 0.5 0
24.8 0.5 0
25.2 0.5 0
25.6 0.5 0
26 0.5 0
26.4 0.5 0
26.8 0.5 0
27.2 0.5 0
27.6 0.5 0
28 0.5 0
28.4 0.5 0
28.8 0.5 0
29.2 0.5 0
29.6 0.5 0
30 0.5 0
30.4 0.5 0
30.8 0.5 0
31.2 0.5 0
31.6 0.5 0
32 0.5 0
32.4 0.5 0
32.8 0.5 0
33.2 0.5 0
33.6 0.5 0
34 0.5 0
34.4 0.5 0
34.8 0.5 0
35.2 0.5 0
35.6 0.5 0
36 0.5 0
36.4 0.5 0
36.8 0.5 0
37.2 0.5 0
37.6 0.5 0
38 0.5 0
38.4 0.5 0
38.8 0.5 0
39.2 0.5 0
39.6 0.5 0
40 0.5 0
40.4 0.5 0
0 0.6 0
0.4 0.6 0
0.8 0.6 0
1.2 0.6 0
1.6 0.6 0
2 0.6 0
2.4 0.6 0
2.8 0.6 0
3.2 0.6 0
3.6 0.6 0
4 0.6 0
4.4 0.6 0
4.8 0.6 0
5.2 0.6 0
5.6 0.6 0
6 0.6 0
6.4 0.6 0
6.8 0.6 0
7.2 0.6 0
7.6 0.6 0
8 0.6 0
8.4 0.6 0
8.8 0.6 0
9.2 0.6 0
9.6 0.6 0
10 0.6 0
10.4 0.6 0
10.8 0.6 0
11.2 0.6 0
11.6 0.6 0
12 0.6 0
12.4 0.6 0
12.8 0.6 0
13.2 0.6 0
13.6 0.6 0
14 0.6 0
14.4 0.6 0
14.8 0.6 0
15.2 0.6 0
15.6 0.6 0
16 0.6 0
16.4 0.6 0
16.8 0.6 0
17.2 0.6 0
17.6 0.6 0
18 0.6 0
18.4 0.6 0
18.8 0.6 0
19.2 0.6 0
19.6 0.6 0
20 0.6 0
20.4 0.6 0
20.8 0.6 0
21.2 0.6 0
21.6 0.6 0
22 0.6 0
22.4 0.6 0
22.8 0.6 0
23.2 0.6 0
23.6 0.6 0
24 0.6 0
24.4 0.6 0
24.8 0.6 0
25.2 0.6 0
25.6 0.6 0
26 0.6 0
26.4 0.6 0
26.8 0.6 0
27.2 0.6 0
27.6 0.6 0
28 0.6 0
28.4 0.6 0
28.8 0.6 0
29.2 0.6 0
29.6 0.6 0
30 0.6 0
30.4 0.6 0
30.8 0.6 0
31.2 0.6 0
31.6 0.6 0
32 0.6 0
32.4 0.6 0
32.8 0.6 0
33.2 0.6 0
33.6 0.6 0
34 0.6 0
34.4 0.6 0
34.8 0.6 0
35.2 0.6 0
35.6 0.6 0
36 0.6 0
36.4 0.6 0
36.8 0.6 0
37.2 0.6 0
37.6 0.6 0
38 0.6 0
38.4 0.6 0
38.8 0.6 0
39.2 0.6 0
39.6 0.6 0
40 0.6 0
40.4 0.6 0
0 0.7 0
0.4 0.7 0
0.8 0.7 0
1.2 0.7 0
1.6 0.7 0
2 0.7 0
2.4 0.7 0
2.8 0.7 0
3.2 0.7 0
3.6 0.7 0
4 0.7 0
4.4 0.7 0
4.8 0.7 0
5.2 0.7 0
5.6 0.7 0
6 0.7 0
6.4 0.7 0
6.8 0.7 0
7.2 0.7 0
7.6 0.7 0
8 0.7 0
8.4 0.7 0
8.8 0.7 0
9.2 0.7 0
9.6 0.7 0
10 0.7 0
10.4 0.7 0
10.8 0.7 0
11.2 0.7 0
11.6 0.7 0
12 0.7 0
12.4 0.7 0
12.8 0.7 0
13.2 0.7 0
13.6 0.7 0
14 0.7 0
14.4 0.7 0
14.8 0.7 0
15.2 0.7 0
15.6 0.7 0
16 0.7 0
16.4 0.7 0
16.8 0.7 0
17.2 0.7 0
17.6 0.7 0
18 0.7 0
18.4 0.7 0
18.8 0.7 0
19.2 0.7 0
19.6 0.7 0
20 0.7 0
20.4 0.7 0
20.8 0.7 0
21.2 0.7 0
21.6 0.7 0
22 0.7 0
22.4 0.7 0
22.8 0.7 0
23.2 0.7 0
23.6 0.7 0
24 0.7 0
24.4 0.7 0
24.8 0.7 0
25.2 0.7 0
25.6 0.7 0
26 0.7 0
26.4 0.7 0
26.8 0.7 0
27.2 0.7 0
27.6 0.7 0
28 0.7 0
28.4 0.7 0
28.8 0.7 0
29.2 0.7 0
29.6 0.7 0
30 0.7 0
30.4 0.7 0
30.8 0.7 0
31.2 0.7 0
31.6 0.7 0
32 0.7 0
32.4 0.7 0
32.8 0.7 0
33.2 0.7 0
33.6 0.7 0
34 0.7 0
34.4 0.7 0
34.8 0.7 0
35.2 0.7 0
35.6 0.7 0
36 0.7 0
36.4 0.7 0
36.8 0.7 0
37.2 0.7 0
37.6 0.7 0
38 0.7 0
38.4 0.7 0
38.8 0.7 0
39.2 0.7 0
39.6 0.7 0
40 0.7 0
40.4 0.7 0
0 0.8 0
0.4 0.8 0
0.8 0.8 0
1.2 0.8 0
1.6 0.8 0
2 0.8 0
2.4 0.8 0
2.8 0.8 0
3.2 0.8 0
3.6 0.8 0
4 0.8 0
4.4 0.8 0
4.8 0.8 0
5.2 0.8 0
5.6 0.8 0
6 0.8 0
6.4 0.8 0
6.8 0.8 0
7.2 0.8 0
7.6 0.8 0
8 0.8 0
8.4 0.8 0
8.8 0.8 0
9.2 0.8 0
9.6 0.8 0
10 0.8 0
10.4 0.8 0
10.8 0.8 0
11.2 0.8 0
11.6 0.8 0
12 0.8 0
12.4 0.8 0
12.8 0.8 0
13.2 0.8 0
13.6 0.8 0
14 0.8 0
14.4 0.8 0
14.8 0.8 0
15.2 0.8 0
15.6 0.8 0
16 0.8 0
16.4 0.8 0
16.8 0.8 0
17.2 0.8 0
17.6 0.8 0
18 0.8 0
18.4 0.8 0
18.8 0.8 0
19.2 0.8 0
19.6 0.8 0
20 0.8 0
20.4 0.8 0
20.8 0.8 0
21.2 0.8 0
21.6 0.8 0
22 0.8 0
22.4 0.8 0
22.8 0.8 0
23.2 0.8 0
23.6 0.8 0
24 0.8 0
24.4 0.8 0
24.8 0.8 0
25.2 0.8 0
25.6 0.8 0
26 0.8 0
26.4 0.8 0
26.8 0.8 0
27.2 0.8 0
27.6 0.8 0
28 0.8 0
28.4 0.8 0
28.8 0.8 0
29.2 0.8 0
29.6 0.8 0
30 0.8 0
30.4 0.8 0
30.8 0.8 0
31.2 0.8 0
31.6 0.8 0
32 0.8 0
32.4 0.8 0
32.8 0.8 0
33.2 0.8 0
33.6 0.8 0
34 0.8 0
34.4 0.8 0
34.8 0.8 0
35.2 0.8 0
35.6 0.8 0
36 0.8 0
36.4 0.8 0
36.8 0.8 0
37.2 0.8 0
37.6 0.8 0
38 0.8 0
38.4 0.8 0
38.8 0.8 0
39.2 0.8 0
39.6 0.8 0
40 0.8 0
40.4 0.8 0
0 0.9 0
0.4 0.9 0
0.8 0.9 0
1.2 0.9 0
1.6 0.9 0
2 0.9 0
2.4 0.9 0
2.8 0.9 0
3.2 0.9 0
3.6 0.9 0
4 0.9 0
4.4 0.9 0
4.8 0.9 0
5.2 0.9 0
5.6 0.9 0
6 0.9 0
6.4 0.9 0
6.8 0.9 0
7.2 0.9 0
7.6 0.9 0
8 0.9 0
8.4 0.9 0
8.8 0.9 0
9.2 0.9 0
9.6 0.9 0
10 0.9 0
10.4 0.9 0
10.8 0.9 0
11.2 0.9 0
11.6 0.9 0
12 0.9 0
12.4 0.9 0
12.8 0.9 0
13.2 0.9 0
13.6 0.9 0
14 0.9 0
14.4 0.9 0
14.8 0.9 0
15.2 0.9 0
15.6 0.9 0
16 0.9 0
16.4 0.9 0
16.8 0.9 0
17.2 0.9 0
17.6 0.9 0
18 0.9 0
18.4 0.9 0
18.8 0.9 0
19.2 0.9 0
19.6 0.9 0
20 0.9 0
20.4 0.9 0
20.8 0.9 0
21.2 0.9 0
21.6 0.9 0
22 0.9 0
22.4 0.9 0
22.8 0.9 0
23.2 0.9 0
23.6 0.9 0
24 0.9 0
24.4 0.9 0
24.8 0.9 0
25.2 0.9 0
25.6 0.9 0
26 0.9 0
26.4 0.9 0
26.8 0.9 0
27.2 0.9 0
27.6 0.9 0
28 0.9 0
28.4 0.9 0
28.8 0.9 0
29.2 0.9 0
29.6 0.9 0
30 0.9 0
30.4 0.9 0
30.8 0.9 0
31.2 0.9 0
31.6 0.9 0
32 0.9 0
32.4 0.9 0
32.8 0.9 0
33.2 0.9 0
33.6 0.9 0
34 0.9 0
34.4 0.9 0
34.8 0.9 0
35.2 0.9 0
35.6 0.9 0
36 0.9 0
36.4 0.9 0
36.8 0.9 0
37.2 0.9 0
37.6 0.9 0
38 0.9 0
38.4 0.9 0
38.8 0.9 0
39.2 0.9 0
39.6 0.9 0
40 0.9 0
40.4 0.9 0
0 1 0
0.4 1 0
0.8 1 0
1.2 1 0
1.6 1 0
2 1 0
2.4 1 0
2.8 1 0
3.2 1 0
3.6 1 0
4 1 0
4.4 1 0
4.8 1 0
5.2 1 0
5.6 1 0
6 1 0
6.4 1 0
6.8 1 0
7.2 1 0
7.6 1 0
8 1 0
8.4 1 0
8.8 1 0
9.2 1 0
9.6 1 0
10 1 0
10.4 1 0
10.8 1 0
11.2 1 0
11.6 1 0
12 1 0
12.4 1 0
12.8 1 0
13.2 1 0
13.6 1 0
14 1 0
14.4 1 0
14.8 1 0
15.2 1 0
15.6 1 0
16 1 0
16.4 1 0
16.8 1 0
17.2 1 0
17.6 1 0
18 1 0
18.4 1 0
18.8 1 0
19.2 1 0
19.6 1 0
20 1 0
20.4 1 0
20.8 1 0
21.2 1 0
21.6 1 0
22 1 0
22.4 1 0
22.8 1 0
23.2 1 0
23.6 1 0
24 1 0
24.4 1 0
24.8 1 0
25.2 1 0
25.6 1 0
26 1 0
26.4 1 0
26.8 1 0
27.2 1 0
27.6 1 0
28 1 0
28.4 1 0
28.8 1 0
29.2 1 0
29.6 1 0
30 1 0
30.4 1 0
30.8 1 0
31.2 1 0
31.6 1 0
32 1 0
32.4 1 0
32.8 1 0
33.2 1 0
33.6 1 0
34 1 0
34.4 1 0
34.8 1 0
35.2 1 0
35.6 1 0
36 1 0
36.4 1 0
36.8 1 0
37.2 1 0
37.6 1 0
38 1 0
38.4 1 0
38.8 1 0
39.2 1 0
39.6 1 0
40 1 0
40.4 1 0
0 1.1 0
0.4 1.1 0
0.8 1.1 0
1.2 1.1 0
1.6 1.1 0
2 1.1 0
2.4 1.1 0
2.8 1.1 0
3.2 1.1 0
3.6 1.1 0
4 1.1 0
4.4 1.1 0
4.8 1.1 0
5.2 1.1 0
5.6 1.1 0
6 1.1 0
6.4 1.1 0
6.8 1.1 0
7.2 1.1 0
7.6 1.1 0
8 1.1 0
8.4 1.1 0
8.8 1.1 0
9.2 1.1 0
9.6 1.1 0
10 1.1 0
10.4 1.1 0
10.8 1.1 0
11.2 1.1 0
11.6 1.1 0
12 1.1 0
12.4 1.1 0
12.8 1.1 0
13.2 1.1 0
13.6 1.1 0
14 1.1 0
14.4 1.1 0
14.8 1.1 0
15.2 1.1 0
15.6 1.1 0
16 1.1 0
16.4 1.1 0
16.8 1.1 0
17.2 1.1 0
17.6 1.1 0
18 1.1 0
18.4 1.1 0
18.8 1.1 0
19.2 1.1 0
19.6 1.1 0
20 1.1 0
20.4 1.1 0
20.8 1.1 0
21.2 1.1 0
21.6 1.1 0
22 1.1 0
22.4 1.1 0
22.8 1.1 0
23.2 1.1 0
23.6 1.1 0
24 1.1 0
24.4 1.1 0
24.8 1.1 0
25.2 1.1 0
25.6 1.1 0
26 1.1 0
26.4 1.1 0
26.8 1.1 0
27.2 1.1 0
27.6 1.1 0
28 1.1 0
28.4 1.1 0
28.8 1.1 0
29.2 1.1 0
29.6 1.1 0
30 1.1 0
30.4 1.1 0
30.8 1.1 0
31.2 1.1 0
31.6 1.1 0
32 1.1 0
32.4 1.1 0
32.8 1.1 0
33.2 1.1 0
33.6 1.1 0
34 1.1 0
34.4 1.1 0
34.8 1.1 0
35.2 1.1 0
35.6 1.1 0
36 1.1 0
36.4 1.1 0
36.8 1.1 0
37.2 1.1 0
37.6 1.1 0
38 1.1 0
38.4 1.1 0
38.8 1.1 0
39.2 1.1 0
39.6 1.1 0
40 1.1 0
40.4 1.1 0

POINT_DATA 1224

SCALARS u double
LOOKUP_TABLE default
-1
-0.80718
-0.659027
-0.550101
-0.474363
-0.423321
-0.389
-0.365438
-0.348706
-0.336385
-0.32702
-0.319734
-0.313974
-0.309379
-0.3057
-0.302758
-0.300423
-0.298594
-0.297194
-0.29616
-0.295435
-0.294971
-0.294719
-0.294637
-0.294695
-0.294847
-0.295046
-0.295262
-0.295473
-0.295666
-0.295833
-0.295972
-0.296084
-0.296171
-0.296236
-0.296285
-0.296321
-0.296346
-0.296364
-0.296377
-0.296385
-0.296391
-0.296395
-0.296398
-0.2964
-0.296401
-0.296402
-0.296402
-0.296403
-0.296403
-0.296403
-0.296403
-0.296404
-0.296404
-0.296404
-0.296404
-0.296404
-0.296404
-0.296404
-0.296404
-0.296404
-0.296404
-0.296404
-0.296404
-0.296404
-0.296404
-0.296404
-0.296404
-0.296404
-0.296404
-0.296404
-0.296404
-0.296404
-0.296404
-0.296404
-0.296404
-0.296404
-0.296404
-0.296404
-0.296404
-0.296404
-0.296404
-0.296404
-0.296404
-0.296404
-0.296404
-0.296404
-0.296404
-0.296404
-0.296404
-0.296404
-0.296406
-0.296415
-0.296436
-0.296567
-0.296884
-0.298735
-0.30343
-0.330434
-0.3727
-1
-0.3727
1
0.80718
0.659027
0.550101
0.474363
0.423321
0.389
0.365438
0.348706
0.336385
0.32702
0.319734
0.313974
0.309379
0.305699
0.302757
0.300421
0.298591
0.29719
0.296153
0.295426
0.294959
0.294705
0.294621
0.294676
0.294827
0.295025
0.295241
0.295452
0.295645
0.295813
0.295952
0.296064
0.296152
0.296218
0.296267
0.296303
0.296329
0.296347
0.296359
0.296368
0.296374
0.296378
0.296381
0.296382
0.296384
0.296385
0.296385
0.296386
0.296386
0.296386
0.296386
0.296386
0.296386
0.296386
0.296386
0.296386
0.296386
0.296386
0.296386
0.296386
0.296386
0.296386
0.296386
0.296386
0.296386
0.296386
0.296386
0.296386
0.296386
0.296386
0.296386
0.296386
0.296386
0.296386
0.296386
0.296386
0.296386
0.296386
0.296386
0.296386
0.296386
0.296386
0.296386
0.296386
0.296386
0.296386
0.296386
0.296386
0.296386
0.296387
0.296388
0.296398
0.296419
0.29655
0.296867
0.298718
0.303413
0.330418
0.372691
1
0.3727
1
1.02373
1.02809
1.01223
0.983935
0.950688
0.917729
0.887957
0.86251
0.841467
0.824393
0.810677
0.799712
0.790968
0.784011
0.778497
0.774164
0.770809
0.768278
0.766444
0.765201
0.764452
0.764106
0.764072
0.764261
0.76462
0.765076
0.765562
0.766031
0.766455
0.766817
0.767114
0.767349
0.76753
0.767665
0.767763
0.767834
0.767884
0.767919
0.767943
0.767959
0.76797
0.767978
0.767983
0.767986
0.767989
0.76799
0.767991
0.767992
0.767992
0.767993
0.767993
0.767993
0.767993
0.767993
0.767993
0.767993
0.767993
0.767993
0.767993
0.767993
0.767993
0.767993
0.767993
0.767993
0.767993
0.767993
0.767993
0.767993
0.767993
0.767993
0.767993
0.767993
0.767993
0.767993
0.767993
0.767993
0.767993
0.767993
0.767993
0.767993
0.767993
0.767993
0.767993
0.767993
0.767993
0.767993
0.767993
0.767993
0.767993
0.767993
0.767994
0.767997
0.768003
0.768057
0.768135
0.768984
0.769819
0.783167
0.798091
1
0.798124
1
1.04017
1.08473
1.11989
1.14301
1.15539
1.15973
1.15877
1.15476
1.1493
1.14345
1.13781
1.13272
1.12831
1.1246
1.12155
1.11908
1.11714
1.11565
1.11455
1.11379
1.11334
1.11313
1.11314
1.1133
1.11355
1.11388
1.11424
1.11461
1.11495
1.11524
1.11549
1.11569
1.11584
1.11596
1.11604
1.1161
1.11614
1.11617
1.11619
1.1162
1.11621
1.11622
1.11622
1.11622
1.11623
1.11623
1.11623
1.11623
1.11623
1.11623
1.11623
1.11623
1.11623
1.11623
1.11623
1.11623
1.11623
1.11623
1.11623
1.11623
1.11623
1.11623
1.11623
1.11623
1.11623
1.11623
1.11623
1.11623
1.11623
1.11623
1.11623
1.11623
1.11623
1.11623
1.11623
1.11623
1.11623
1.11623
1.11623
1.11623
1.11623
1.11623
1.11623
1.11623
1.11623
1.11623
1.11623
1.11623
1.11623
1.11623
1.11623
1.11623
1.11622
1.11621
1.11612
1.11603
1.11475
1.1121
1.10681
1
1.10684
1
1.03766
1.08576
1.13255
1.17421
1.20955
1.23861
1.26203
1.28064
1.29531
1.30682
1.31583
1.32289
1.32843
1.33279
1.33621
1.33888
1.34095
1.34252
1.34367
1.34446
1.34496
1.34523
1.34531
1.34526
1.3451
1.34489
1.34466
1.34443
1.34423
1.34406
1.34393
1.34382
1.34374
1.34368
1.34363
1.3436
1.34358
1.34356
1.34355
1.34355
1.34354
1.34354
1.34353
1.34353
1.34353
1.34353
1.34353
1.34353
1.34353
1.34353
1.34353
1.34353
1.34353
1.34353
1.34353
1.34353
1.34353
1.34353
1.34353
1.34353
1.34353
1.34353
1.34353
1.34353
1.34353
1.34353
1.34353
1.34353
1.34353
1.34353
1.34353
1.34353
1.34353
1.34353
1.34353
1.34353
1.34353
1.34353
1.34353
1.34353
1.34353
1.34353
1.34353
1.34353
1.34353
1.34353
1.34353
1.34353
1.34353
1.34353
1.34353
1.34352
1.34352
1.34346
1.34336
1.34242
1.34146
1.3257
1.32278
1
1.32276
1
1.03576
1.08266
1.1305
1.17621
1.21854
1.25697
1.29129
1.32149
1.34769
1.37013
1.38912
1.405
1.41817
1.42896
1.43773
1.44475
1.45029
1.45455
1.45771
1.45992
1.46132
1.46204
1.4622
1.46194
1.46139
1.46064
1.4598
1.45897
1.45818
1.45749
1.45691
1.45644
1.45607
1.4558
1.45559
1.45544
1.45534
1.45526
1.45521
1.45518
1.45516
1.45514
1.45513
1.45513
1.45512
1.45512
1.45512
1.45511
1.45511
1.45511
1.45511
1.45511
1.45511
1.45511
1.45511
1.45511
1.45511
1.45511
1.45511
1.45511
1.45511
1.45511
1.45511
1.45511
1.45511
1.45511
1.45511
1.45511
1.45511
1.45511
1.45511
1.45511
1.45511
1.45511
1.45511
1.45511
1.45511
1.45511
1.45511
1.45511
1.45511
1.45511
1.45511
1.45511
1.45511
1.45511
1.45511
1.45511
1.45511
1.45511
1.45511
1.4551
1.4551
1.45499
1.45498
1.45342
1.45332
1.42981
1.43346
1
1.4334
1
1.03576
1.08266
1.1305
1.17621
1.21854
1.25697
1.29129
1.32149
1.34769
1.37013
1.38912
1.405
1.41817
1.42896
1.43773
1.44475
1.45029
1.45455
1.45771
1.45992
1.46132
1.46204
1.4622
1.46194
1.46139
1.46064
1.4598
1.45897
1.45818
1.45749
1.45691
1.45644
1.45607
1.4558
1.45559
1.45544
1.45534
1.45526
1.45521
1.45518
1.45516
1.45514
1.45513
1.45513
1.45512
1.45512
1.45512
1.45511
1.45511
1.45511
1.45511
1.45511
1.45511
1.45511
1.45511
1.45511
1.45511
1.45511
1.45511
1.45511
1.45511
1.45511
1.45511
1.45511
1.45511
1.45511
1.45511
1.45511
1.45511
1.45511
1.45511
1.45511
1.45511
1.45511
1.45511
1.45511
1.45511
1.45511
1.45511
1.45511
1.45511
1.45511
1.45511
1.45511
1.45511
1.45511
1.45511
1.45511
1.45511
1.45511
1.45511
1.4551
1.4551
1.45499
1.45498
1.45342
1.45332
1.42981
1.43345
1
1.4334
1
1.03766
1.08576
1.13255
1.17421
1.20955
1.23861
1.26203
1.28064
1.29531
1.30682
1.31583
1.32289
1.32843
1.33279
1.33621
1.33888
1.34095
1.34252
1.34367
1.34446
1.34496
1.34523
1.34531
1.34526
1.34511
1.34489
1.34466
1.34443
1.34423
1.34406
1.34393
1.34382
1.34374
1.34368
1.34363
1.3436
1.34358
1.34356
1.34355
1.34355
1.34354
1.34354
1.34353
1.34353
1.34353
1.34353
1.34353
1.34353
1.34353
1.34353
1.34353
1.34353
1.34353
1.34353
1.34353
1.34353
1.34353
1.34353
1.34353
1.34353
1.34353
1.34353
1.34353
1.34353
1.34353
1.34353
1.34353
1.34353
1.34353
1.34353
1.34353
1.34353
1.34353
1.34353
1.34353
1.34353
1.34353
1.34353
1.34353
1.34353
1.34353
1.34353
1.34353
1.34353
1.34353
1.34353
1.34353
1.34353
1.34353
1.34353
1.34353
1.34352
1.34352
1.34346
1.34336
1.34242
1.34146
1.3257
1.32278
1
1.32276
1
1.04017
1.08473
1.11989
1.14301
1.15539
1.15973
1.15877
1.15476
1.1493
1.14345
1.13781
1.13272
1.12831
1.1246
1.12155
1.11909
1.11714
1.11565
1.11455
1.1138
1.11334
1.11314
1.11314
1.1133
1.11355
1.11388
1.11424
1.11461
1.11495
1.11524
1.11549
1.11569
1.11584
1.11596
1.11604
1.1161
1.11614
1.11617
1.11619
1.1162
1.11621
1.11622
1.11622
1.11622
1.11623
1.11623
1.11623
1.11623
1.11623
1.11623
1.11623
1.11623
1.11623
1.11623
1.11623
1.11623
1.11623
1.11623
1.11623
1.11623
1.11623
1.11623
1.11623
1.11623
1.11623
1.11623
1.11623
1.11623
1.11623
1.11623
1.11623
1.11623
1.11623
1.11623
1.11623
1.11623
1.11623
1.11623
1.11623
1.11623
1.11623
1.11623
1.11623
1.11623
1.11623
1.11623
1.11623
1.11623
1.11623
1.11623
1.11623
1.11623
1.11622
1.11621
1.11612
1.11603
1.11475
1.1121
1.10681
1
1.10684
1
1.02373
1.02809
1.01223
0.983935
0.950688
0.917729
0.887957
0.86251
0.841468
0.824394
0.810678
0.799713
0.790969
0.784012
0.778499
0.774166
0.770812
0.76828
0.766447
0.765204
0.764455
0.764108
0.764075
0.764262
0.764621
0.765076
0.765562
0.766031
0.766454
0.766816
0.767113
0.767348
0.767529
0.767664
0.767763
0.767834
0.767884
0.767919
0.767943
0.767959
0.76797
0.767978
0.767983
0.767986
0.767988
0.76799
0.767991
0.767992
0.767992
0.767993
0.767993
0.767993
0.767993
0.767993
0.767993
0.767993
0.767993
0.767993
0.767993
0.767993
0.767993
0.767993
0.767993
0.767993
0.767993
0.767993
0.767993
0.767993
0.767993
0.767993
0.767993
0.767993
0.767993
0.767993
0.767993
0.767993
0.767993
0.767992
0.767992
0.767992
0.767992
0.767992
0.767992
0.767992
0.767992
0.767992
0.767992
0.767992
0.767992
0.767992
0.767993
0.767996
0.768003
0.768056
0.768134
0.768983
0.769819
0.783166
0.79809
1
0.798124
1
0.80718
0.659027
0.550101
0.474363
0.423321
0.389001
0.365439
0.348707
0.336385
0.327021
0.319734
0.313974
0.309379
0.3057
0.302758
0.300422
0.298592
0.297191
0.296154
0.295427
0.29496
0.294706
0.294621
0.294677
0.294827
0.295025
0.295241
0.295452
0.295645
0.295812
0.295952
0.296064
0.296151
0.296218
0.296267
0.296303
0.296329
0.296347
0.296359
0.296368
0.296374
0.296378
0.296381
0.296382
0.296384
0.296385
0.296385
0.296385
0.296386
0.296386
0.296386
0.296386
0.296386
0.296386
0.296386
0.296386
0.296386
0.296386
0.296386
0.296386
0.296386
0.296386
0.296386
0.296386
0.296386
0.296386
0.296386
0.296386
0.296386
0.296386
0.296386
0.296386
0.296386
0.296386
0.296386
0.296386
0.296386
0.296386
0.296386
0.296386
0.296386
0.296386
0.296386
0.296386
0.296386
0.296386
0.296386
0.296386
0.296386
0.296387
0.296388
0.296397
0.296418
0.296549
0.296867
0.298717
0.303412
0.330418
0.372691
1
0.3727
-1
-0.80718
-0.659027
-0.550101
-0.474363
-0.423321
-0.389001
-0.365439
-0.348707
-0.336385
-0.327021
-0.319734
-0.313974
-0.309379
-0.3057
-0.302759
-0.300424
-0.298595
-0.297195
-0.296161
-0.295436
-0.294972
-0.29472
-0.294638
-0.294695
-0.294847
-0.295046
-0.295262
-0.295473
-0.295666
-0.295833
-0.295972
-0.296083
-0.29617
-0.296236
-0.296285
-0.296321
-0.296346
-0.296364
-0.296377
-0.296385
-0.296391
-0.296395
-0.296398
-0.2964
-0.296401
-0.296402
-0.296402
-0.296403
-0.296403
-0.296403
-0.296403
-0.296403
-0.296403
-0.296404
-0.296404
-0.296404
-0.296404
-0.296404
-0.296403
-0.296403
-0.296403
-0.296403
-0.296403
-0.296403
-0.296403
-0.296403
-0.296403
-0.296403
-0.296403
-0.296403
-0.296403
-0.296403
-0.296403
-0.296403
-0.296403
-0.296403
-0.296403
-0.296403
-0.296403
-0.296403
-0.296403
-0.296403
-0.296403
-0.296403
-0.296403
-0.296403
-0.296403
-0.296403
-0.296403
-0.296404
-0.296405
-0.296414
-0.296436
-0.296567
-0.296884
-0.298735
-0.303429
-0.330434
-0.3727
-1
-0.3727
