# vtk DataFile Version 2.0
FlowField
ASCII
DATASET STRUCTURED_GRID
DIMENSIONS 102 1 12 
POINTS 1224 double
0 0 0
0.4 0 0
0.8 0 0
1.2 0 0
1.6 0 0
2 0 0
2.4 0 0
2.8 0 0
3.2 0 0
3.6 0 0
4 0 0
4.4 0 0
4.8 0 0
5.2 0 0
5.6 0 0
6 0 0
6.4 0 0
6.8 0 0
7.2 0 0
7.6 0 0
8 0 0
8.4 0 0
8.8 0 0
9.2 0 0
9.6 0 0
10 0 0
10.4 0 0
10.8 0 0
11.2 0 0
11.6 0 0
12 0 0
12.4 0 0
12.8 0 0
13.2 0 0
13.6 0 0
14 0 0
14.4 0 0
14.8 0 0
15.2 0 0
15.6 0 0
16 0 0
16.4 0 0
16.8 0 0
17.2 0 0
17.6 0 0
18 0 0
18.4 0 0
18.8 0 0
19.2 0 0
19.6 0 0
20 0 0
20.4 0 0
20.8 0 0
21.2 0 0
21.6 0 0
22 0 0
22.4 0 0
22.8 0 0
23.2 0 0
23.6 0 0
24 0 0
24.4 0 0
24.8 0 0
25.2 0 0
25.6 0 0
26 0 0
26.4 0 0
26.8 0 0
27.2 0 0
27.6 0 0
28 0 0
28.4 0 0
28.8 0 0
29.2 0 0
29.6 0 0
30 0 0
30.4 0 0
30.8 0 0
31.2 0 0
31.6 0 0
32 0 0
32.4 0 0
32.8 0 0
33.2 0 0
33.6 0 0
34 0 0
34.4 0 0
34.8 0 0
35.2 0 0
35.6 0 0
36 0 0
36.4 0 0
36.8 0 0
37.2 0 0
37.6 0 0
38 0 0
38.4 0 0
38.8 0 0
39.2 0 0
39.6 0 0
40 0 0
40.4 0 0
0 0.1 0
0.4 0.1 0
0.8 0.1 0
1.2 0.1 0
1.6 0.1 0
2 0.1 0
2.4 0.1 0
2.8 0.1 0
3.2 0.1 0
3.6 0.1 0
4 0.1 0
4.4 0.1 0
4.8 0.1 0
5.2 0.1 0
5.6 0.1 0
6 0.1 0
6.4 0.1 0
6.8 0.1 0
7.2 0.1 0
7.6 0.1 0
8 0.1 0
8.4 0.1 0
8.8 0.1 0
9.2 0.1 0
9.6 0.1 0
10 0.1 0
10.4 0.1 0
10.8 0.1 0
11.2 0.1 0
11.6 0.1 0
12 0.1 0
12.4 0.1 0
12.8 0.1 0
13.2 0.1 0
13.6 0.1 0
14 0.1 0
14.4 0.1 0
14.8 0.1 0
15.2 0.1 0
15.6 0.1 0
16 0.1 0
16.4 0.1 0
16.8 0.1 0
17.2 0.1 0
17.6 0.1 0
18 0.1 0
18.4 0.1 0
18.8 0.1 0
19.2 0.1 0
19.6 0.1 0
20 0.1 0
20.4 0.1 0
20.8 0.1 0
21.2 0.1 0
21.6 0.1 0
22 0.1 0
22.4 0.1 0
22.8 0.1 0
23.2 0.1 0
23.6 0.1 0
24 0.1 0
24.4 0.1 0
24.8 0.1 0
25.2 0.1 0
25.6 0.1 0
26 0.1 0
26.4 0.1 0
26.8 0.1 0
27.2 0.1 0
27.6 0.1 0
28 0.1 0
28.4 0.1 0
28.8 0.1 0
29.2 0.1 0
29.6 0.1 0
30 0.1 0
30.4 0.1 0
30.8 0.1 0
31.2 0.1 0
31.6 0.1 0
32 0.1 0
32.4 0.1 0
32.8 0.1 0
33.2 0.1 0
33.6 0.1 0
34 0.1 0
34.4 0.1 0
34.8 0.1 0
35.2 0.1 0
35.6 0.1 0
36 0.1 0
36.4 0.1 0
36.8 0.1 0
37.2 0.1 0
37.6 0.1 0
38 0.1 0
38.4 0.1 0
38.8 0.1 0
39.2 0.1 0
39.6 0.1 0
40 0.1 0
40.4 0.1 0
0 0.2 0
0.4 0.2 0
0.8 0.2 0
1.2 0.2 0
1.6 0.2 0
2 0.2 0
2.4 0.2 0
2.8 0.2 0
3.2 0.2 0
3.6 0.2 0
4 0.2 0
4.4 0.2 0
4.8 0.2 0
5.2 0.2 0
5.6 0.2 0
6 0.2 0
6.4 0.2 0
6.8 0.2 0
7.2 0.2 0
7.6 0.2 0
8 0.2 0
8.4 0.2 0
8.8 0.2 0
9.2 0.2 0
9.6 0.2 0
10 0.2 0
10.4 0.2 0
10.8 0.2 0
11.2 0.2 0
11.6 0.2 0
12 0.2 0
12.4 0.2 0
12.8 0.2 0
13.2 0.2 0
13.6 0.2 0
14 0.2 0
14.4 0.2 0
14.8 0.2 0
15.2 0.2 0
15.6 0.2 0
16 0.2 0
16.4 0.2 0
16.8 0.2 0
17.2 0.2 0
17.6 0.2 0
18 0.2 0
18.4 0.2 0
18.8 0.2 0
19.2 0.2 0
19.6 0.2 0
20 0.2 0
20.4 0.2 0
20.8 0.2 0
21.2 0.2 0
21.6 0.2 0
22 0.2 0
22.4 0.2 0
22.8 0.2 0
23.2 0.2 0
23.6 0.2 0
24 0.2 0
24.4 0.2 0
24.8 0.2 0
25.2 0.2 0
25.6 0.2 0
26 0.2 0
26.4 0.2 0
26.8 0.2 0
27.2 0.2 0
27.6 0.2 0
28 0.2 0
28.4 0.2 0
28.8 0.2 0
29.2 0.2 0
29.6 0.2 0
30 0.2 0
30.4 0.2 0
30.8 0.2 0
31.2 0.2 0
31.6 0.2 0
32 0.2 0
32.4 0.2 0
32.8 0.2 0
33.2 0.2 0
33.6 0.2 0
34 0.2 0
34.4 0.2 0
34.8 0.2 0
35.2 0.2 0
35.6 0.2 0
36 0.2 0
36.4 0.2 0
36.8 0.2 0
37.2 0.2 0
37.6 0.2 0
38 0.2 0
38.4 0.2 0
38.8 0.2 0
39.2 0.2 0
39.6 0.2 0
40 0.2 0
40.4 0.2 0
0 0.3 0
0.4 0.3 0
0.8 0.3 0
1.2 0.3 0
1.6 0.3 0
2 0.3 0
2.4 0.3 0
2.8 0.3 0
3.2 0.3 0
3.6 0.3 0
4 0.3 0
4.4 0.3 0
4.8 0.3 0
5.2 0.3 0
5.6 0.3 0
6 0.3 0
6.4 0.3 0
6.8 0.3 0
7.2 0.3 0
7.6 0.3 0
8 0.3 0
8.4 0.3 0
8.8 0.3 0
9.2 0.3 0
9.6 0.3 0
10 0.3 0
10.4 0.3 0
10.8 0.3 0
11.2 0.3 0
11.6 0.3 0
12 0.3 0
12.4 0.3 0
12.8 0.3 0
13.2 0.3 0
13.6 0.3 0
14 0.3 0
14.4 0.3 0
14.8 0.3 0
15.2 0.3 0
15.6 0.3 0
16 0.3 0
16.4 0.3 0
16.8 0.3 0
17.2 0.3 0
17.6 0.3 0
18 0.3 0
18.4 0.3 0
18.8 0.3 0
19.2 0.3 0
19.6 0.3 0
20 0.3 0
20.4 0.3 0
20.8 0.3 0
21.2 0.3 0
21.6 0.3 0
22 0.3 0
22.4 0.3 0
22.8 0.3 0
23.2 0.3 0
23.6 0.3 0
24 0.3 0
24.4 0.3 0
24.8 0.3 0
25.2 0.3 0
25.6 0.3 0
26 0.3 0
26.4 0.3 0
26.8 0.3 0
27.2 0.3 0
27.6 0.3 0
28 0.3 0
28.4 0.3 0
28.8 0.3 0
29.2 0.3 0
29.6 0.3 0
30 0.3 0
30.4 0.3 0
30.8 0.3 0
31.2 0.3 0
31.6 0.3 0
32 0.3 0
32.4 0.3 0
32.8 0.3 0
33.2 0.3 0
33.6 0.3 0
34 0.3 0
34.4 0.3 0
34.8 0.3 0
35.2 0.3 0
35.6 0.3 0
36 0.3 0
36.4 0.3 0
36.8 0.3 0
37.2 0.3 0
37.6 0.3 0
38 0.3 0
38.4 0.3 0
38.8 0.3 0
39.2 0.3 0
39.6 0.3 0
40 0.3 0
40.4 0.3 0
0 0.4 0
0.4 0.4 0
0.8 0.4 0
1.2 0.4 0
1.6 0.4 0
2 0.4 0
2.4 0.4 0
2.8 0.4 0
3.2 0.4 0
3.6 0.4 0
4 0.4 0
4.4 0.4 0
4.8 0.4 0
5.2 0.4 0
5.6 0.4 0
6 0.4 0
6.4 0.4 0
6.8 0.4 0
7.2 0.4 0
7.6 0.4 0
8 0.4 0
8.4 0.4 0
8.8 0.4 0
9.2 0.4 0
9.6 0.4 0
10 0.4 0
10.4 0.4 0
10.8 0.4 0
11.2 0.4 0
11.6 0.4 0
12 0.4 0
12.4 0.4 0
12.8 0.4 0
13.2 0.4 0
13.6 0.4 0
14 0.4 0
14.4 0.4 0
14.8 0.4 0
15.2 0.4 0
15.6 0.4 0
16 0.4 0
16.4 0.4 0
16.8 0.4 0
17.2 0.4 0
17.6 0.4 0
18 0.4 0
18.4 0.4 0
18.8 0.4 0
19.2 0.4 0
19.6 0.4 0
20 0.4 0
20.4 0.4 0
20.8 0.4 0
21.2 0.4 0
21.6 0.4 0
22 0.4 0
22.4 0.4 0
22.8 0.4 0
23.2 0.4 0
23.6 0.4 0
24 0.4 0
24.4 0.4 0
24.8 0.4 0
25.2 0.4 0
25.6 0.4 0
26 0.4 0
26.4 0.4 0
26.8 0.4 0
27.2 0.4 0
27.6 0.4 0
28 0.4 0
28.4 0.4 0
28.8 0.4 0
29.2 0.4 0
29.6 0.4 0
30 0.4 0
30.4 0.4 0
30.8 0.4 0
31.2 0.4 0
31.6 0.4 0
32 0.4 0
32.4 0.4 0
32.8 0.4 0
33.2 0.4 0
33.6 0.4 0
34 0.4 0
34.4 0.4 0
34.8 0.4 0
35.2 0.4 0
35.6 0.4 0
36 0.4 0
36.4 0.4 0
36.8 0.4 0
37.2 0.4 0
37.6 0.4 0
38 0.4 0
38.4 0.4 0
38.8 0.4 0
39.2 0.4 0
39.6 0.4 0
40 0.4 0
40.4 0.4 0
0 0.5 0
0.4 0.5 0
0.8 0.5 0
1.2 0.5 0
1.6 0.5 0
2 0.5 0
2.4 0.5 0
2.8 0.5 0
3.2 0.5 0
3.6 0.5 0
4 0.5 0
4.4 0.5 0
4.8 0.5 0
5.2 0.5 0
5.6 0.5 0
6 0.5 0
6.4 0.5 0
6.8 0.5 0
7.2 0.5 0
7.6 0.5 0
8 0.5 0
8.4 0.5 0
8.8 0.5 0
9.2 0.5 0
9.6 0.5 0
10 0.5 0
10.4 0.5 0
10.8 0.5 0
11.2 0.5 0
11.6 0.5 0
12 0.5 0
12.4 0.5 0
12.8 0.5 0
13.2 0.5 0
13.6 0.5 0
14 0.5 0
14.4 0.5 0
14.8 0.5 0
15.2 0.5 0
15.6 0.5 0
16 0.5 0
16.4 0.5 0
16.8 0.5 0
17.2 0.5 0
17.6 0.5 0
18 0.5 0
18.4 0.5 0
18.8 0.5 0
19.2 0.5 0
19.6 0.5 0
20 0.5 0
20.4 0.5 0
20.8 0.5 0
21.2 0.5 0
21.6 0.5 0
22 0.5 0
22.4 0.5 0
22.8 0.5 0
23.2 0.5 0
23.6 0.5 0
24 0.5 0
24.4 0.5 0
24.8 0.5 0
25.2 0.5 0
25.6 0.5 0
26 0.5 0
26.4 0.5 0
26.8 0.5 0
27.2 0.5 0
27.6 0.5 0
28 0.5 0
28.4 0.5 0
28.8 0.5 0
29.2 0.5 0
29.6 0.5 0
30 0.5 0
30.4 0.5 0
30.8 0.5 0
31.2 0.5 0
31.6 0.5 0
32 0.5 0
32.4 0.5 0
32.8 0.5 0
33.2 0.5 0
33.6 0.5 0
34 0.5 0
34.4 0.5 0
34.8 0.5 0
35.2 0.5 0
35.6 0.5 0
36 0.5 0
36.4 0.5 0
36.8 0.5 0
37.2 0.5 0
37.6 0.5 0
38 0.5 0
38.4 0.5 0
38.8 0.5 0
39.2 0.5 0
39.6 0.5 0
40 0.5 0
40.4 0.5 0
0 0.6 0
0.4 0.6 0
0.8 0.6 0
1.2 0.6 0
1.6 0.6 0
2 0.6 0
2.4 0.6 0
2.8 0.6 0
3.2 0.6 0
3.6 0.6 0
4 0.6 0
4.4 0.6 0
4.8 0.6 0
5.2 0.6 0
5.6 0.6 0
6 0.6 0
6.4 0.6 0
6.8 0.6 0
7.2 0.6 0
7.6 0.6 0
8 0.6 0
8.4 0.6 0
8.8 0.6 0
9.2 0.6 0
9.6 0.6 0
10 0.6 0
10.4 0.6 0
10.8 0.6 0
11.2 0.6 0
11.6 0.6 0
12 0.6 0
12.4 0.6 0
12.8 0.6 0
13.2 0.6 0
13.6 0.6 0
14 0.6 0
14.4 0.6 0
14.8 0.6 0
15.2 0.6 0
15.6 0.6 0
16 0.6 0
16.4 0.6 0
16.8 0.6 0
17.2 0.6 0
17.6 0.6 0
18 0.6 0
18.4 0.6 0
18.8 0.6 0
19.2 0.6 0
19.6 0.6 0
20 0.6 0
20.4 0.6 0
20.8 0.6 0
21.2 0.6 0
21.6 0.6 0
22 0.6 0
22.4 0.6 0
22.8 0.6 0
23.2 0.6 0
23.6 0.6 0
24 0.6 0
24.4 0.6 0
24.8 0.6 0
25.2 0.6 0
25.6 0.6 0
26 0.6 0
26.4 0.6 0
26.8 0.6 0
27.2 0.6 0
27.6 0.6 0
28 0.6 0
28.4 0.6 0
28.8 0.6 0
29.2 0.6 0
29.6 0.6 0
30 0.6 0
30.4 0.6 0
30.8 0.6 0
31.2 0.6 0
31.6 0.6 0
32 0.6 0
32.4 0.6 0
32.8 0.6 0
33.2 0.6 0
33.6 0.6 0
34 0.6 0
34.4 0.6 0
34.8 0.6 0
35.2 0.6 0
35.6 0.6 0
36 0.6 0
36.4 0.6 0
36.8 0.6 0
37.2 0.6 0
37.6 0.6 0
38 0.6 0
38.4 0.6 0
38.8 0.6 0
39.2 0.6 0
39.6 0.6 0
40 0.6 0
40.4 0.6 0
0 0.7 0
0.4 0.7 0
0.8 0.7 0
1.2 0.7 0
1.6 0.7 0
2 0.7 0
2.4 0.7 0
2.8 0.7 0
3.2 0.7 0
3.6 0.7 0
4 0.7 0
4.4 0.7 0
4.8 0.7 0
5.2 0.7 0
5.6 0.7 0
6 0.7 0
6.4 0.7 0
6.8 0.7 0
7.2 0.7 0
7.6 0.7 0
8 0.7 0
8.4 0.7 0
8.8 0.7 0
9.2 0.7 0
9.6 0.7 0
10 0.7 0
10.4 0.7 0
10.8 0.7 0
11.2 0.7 0
11.6 0.7 0
12 0.7 0
12.4 0.7 0
12.8 0.7 0
13.2 0.7 0
13.6 0.7 0
14 0.7 0
14.4 0.7 0
14.8 0.7 0
15.2 0.7 0
15.6 0.7 0
16 0.7 0
16.4 0.7 0
16.8 0.7 0
17.2 0.7 0
17.6 0.7 0
18 0.7 0
18.4 0.7 0
18.8 0.7 0
19.2 0.7 0
19.6 0.7 0
20 0.7 0
20.4 0.7 0
20.8 0.7 0
21.2 0.7 0
21.6 0.7 0
22 0.7 0
22.4 0.7 0
22.8 0.7 0
23.2 0.7 0
23.6 0.7 0
24 0.7 0
24.4 0.7 0
24.8 0.7 0
25.2 0.7 0
25.6 0.7 0
26 0.7 0
26.4 0.7 0
26.8 0.7 0
27.2 0.7 0
27.6 0.7 0
28 0.7 0
28.4 0.7 0
28.8 0.7 0
29.2 0.7 0
29.6 0.7 0
30 0.7 0
30.4 0.7 0
30.8 0.7 0
31.2 0.7 0
31.6 0.7 0
32 0.7 0
32.4 0.7 0
32.8 0.7 0
33.2 0.7 0
33.6 0.7 0
34 0.7 0
34.4 0.7 0
34.8 0.7 0
35.2 0.7 0
35.6 0.7 0
36 0.7 0
36.4 0.7 0
36.8 0.7 0
37.2 0.7 0
37.6 0.7 0
38 0.7 0
38.4 0.7 0
38.8 0.7 0
39.2 0.7 0
39.6 0.7 0
40 0.7 0
40.4 0.7 0
0 0.8 0
0.4 0.8 0
0.8 0.8 0
1.2 0.8 0
1.6 0.8 0
2 0.8 0
2.4 0.8 0
2.8 0.8 0
3.2 0.8 0
3.6 0.8 0
4 0.8 0
4.4 0.8 0
4.8 0.8 0
5.2 0.8 0
5.6 0.8 0
6 0.8 0
6.4 0.8 0
6.8 0.8 0
7.2 0.8 0
7.6 0.8 0
8 0.8 0
8.4 0.8 0
8.8 0.8 0
9.2 0.8 0
9.6 0.8 0
10 0.8 0
10.4 0.8 0
10.8 0.8 0
11.2 0.8 0
11.6 0.8 0
12 0.8 0
12.4 0.8 0
12.8 0.8 0
13.2 0.8 0
13.6 0.8 0
14 0.8 0
14.4 0.8 0
14.8 0.8 0
15.2 0.8 0
15.6 0.8 0
16 0.8 0
16.4 0.8 0
16.8 0.8 0
17.2 0.8 0
17.6 0.8 0
18 0.8 0
18.4 0.8 0
18.8 0.8 0
19.2 0.8 0
19.6 0.8 0
20 0.8 0
20.4 0.8 0
20.8 0.8 0
21.2 0.8 0
21.6 0.8 0
22 0.8 0
22.4 0.8 0
22.8 0.8 0
23.2 0.8 0
23.6 0.8 0
24 0.8 0
24.4 0.8 0
24.8 0.8 0
25.2 0.8 0
25.6 0.8 0
26 0.8 0
26.4 0.8 0
26.8 0.8 0
27.2 0.8 0
27.6 0.8 0
28 0.8 0
28.4 0.8 0
28.8 0.8 0
29.2 0.8 0
29.6 0.8 0
30 0.8 0
30.4 0.8 0
30.8 0.8 0
31.2 0.8 0
31.6 0.8 0
32 0.8 0
32.4 0.8 0
32.8 0.8 0
33.2 0.8 0
33.6 0.8 0
34 0.8 0
34.4 0.8 0
34.8 0.8 0
35.2 0.8 0
35.6 0.8 0
36 0.8 0
36.4 0.8 0
36.8 0.8 0
37.2 0.8 0
37.6 0.8 0
38 0.8 0
38.4 0.8 0
38.8 0.8 0
39.2 0.8 0
39.6 0.8 0
40 0.8 0
40.4 0.8 0
0 0.9 0
0.4 0.9 0
0.8 0.9 0
1.2 0.9 0
1.6 0.9 0
2 0.9 0
2.4 0.9 0
2.8 0.9 0
3.2 0.9 0
3.6 0.9 0
4 0.9 0
4.4 0.9 0
4.8 0.9 0
5.2 0.9 0
5.6 0.9 0
6 0.9 0
6.4 0.9 0
6.8 0.9 0
7.2 0.9 0
7.6 0.9 0
8 0.9 0
8.4 0.9 0
8.8 0.9 0
9.2 0.9 0
9.6 0.9 0
10 0.9 0
10.4 0.9 0
10.8 0.9 0
11.2 0.9 0
11.6 0.9 0
12 0.9 0
12.4 0.9 0
12.8 0.9 0
13.2 0.9 0
13.6 0.9 0
14 0.9 0
14.4 0.9 0
14.8 0.9 0
15.2 0.9 0
15.6 0.9 0
16 0.9 0
16.4 0.9 0
16.8 0.9 0
17.2 0.9 0
17.6 0.9 0
18 0.9 0
18.4 0.9 0
18.8 0.9 0
19.2 0.9 0
19.6 0.9 0
20 0.9 0
20.4 0.9 0
20.8 0.9 0
21.2 0.9 0
21.6 0.9 0
22 0.9 0
22.4 0.9 0
22.8 0.9 0
23.2 0.9 0
23.6 0.9 0
24 0.9 0
24.4 0.9 0
24.8 0.9 0
25.2 0.9 0
25.6 0.9 0
26 0.9 0
26.4 0.9 0
26.8 0.9 0
27.2 0.9 0
27.6 0.9 0
28 0.9 0
28.4 0.9 0
28.8 0.9 0
29.2 0.9 0
29.6 0.9 0
30 0.9 0
30.4 0.9 0
30.8 0.9 0
31.2 0.9 0
31.6 0.9 0
32 0.9 0
32.4 0.9 0
32.8 0.9 0
33.2 0.9 0
33.6 0.9 0
34 0.9 0
34.4 0.9 0
34.8 0.9 0
35.2 0.9 0
35.6 0.9 0
36 0.9 0
36.4 0.9 0
36.8 0.9 0
37.2 0.9 0
37.6 0.9 0
38 0.9 0
38.4 0.9 0
38.8 0.9 0
39.2 0.9 0
39.6 0.9 0
40 0.9 0
40.4 0.9 0
0 1 0
0.4 1 0
0.8 1 0
1.2 1 0
1.6 1 0
2 1 0
2.4 1 0
2.8 1 0
3.2 1 0
3.6 1 0
4 1 0
4.4 1 0
4.8 1 0
5.2 1 0
5.6 1 0
6 1 0
6.4 1 0
6.8 1 0
7.2 1 0
7.6 1 0
8 1 0
8.4 1 0
8.8 1 0
9.2 1 0
9.6 1 0
10 1 0
10.4 1 0
10.8 1 0
11.2 1 0
11.6 1 0
12 1 0
12.4 1 0
12.8 1 0
13.2 1 0
13.6 1 0
14 1 0
14.4 1 0
14.8 1 0
15.2 1 0
15.6 1 0
16 1 0
16.4 1 0
16.8 1 0
17.2 1 0
17.6 1 0
18 1 0
18.4 1 0
18.8 1 0
19.2 1 0
19.6 1 0
20 1 0
20.4 1 0
20.8 1 0
21.2 1 0
21.6 1 0
22 1 0
22.4 1 0
22.8 1 0
23.2 1 0
23.6 1 0
24 1 0
24.4 1 0
24.8 1 0
25.2 1 0
25.6 1 0
26 1 0
26.4 1 0
26.8 1 0
27.2 1 0
27.6 1 0
28 1 0
28.4 1 0
28.8 1 0
29.2 1 0
29.6 1 0
30 1 0
30.4 1 0
30.8 1 0
31.2 1 0
31.6 1 0
32 1 0
32.4 1 0
32.8 1 0
33.2 1 0
33.6 1 0
34 1 0
34.4 1 0
34.8 1 0
35.2 1 0
35.6 1 0
36 1 0
36.4 1 0
36.8 1 0
37.2 1 0
37.6 1 0
38 1 0
38.4 1 0
38.8 1 0
39.2 1 0
39.6 1 0
40 1 0
40.4 1 0
0 1.1 0
0.4 1.1 0
0.8 1.1 0
1.2 1.1 0
1.6 1.1 0
2 1.1 0
2.4 1.1 0
2.8 1.1 0
3.2 1.1 0
3.6 1.1 0
4 1.1 0
4.4 1.1 0
4.8 1.1 0
5.2 1.1 0
5.6 1.1 0
6 1.1 0
6.4 1.1 0
6.8 1.1 0
7.2 1.1 0
7.6 1.1 0
8 1.1 0
8.4 1.1 0
8.8 1.1 0
9.2 1.1 0
9.6 1.1 0
10 1.1 0
10.4 1.1 0
10.8 1.1 0
11.2 1.1 0
11.6 1.1 0
12 1.1 0
12.4 1.1 0
12.8 1.1 0
13.2 1.1 0
13.6 1.1 0
14 1.1 0
14.4 1.1 0
14.8 1.1 0
15.2 1.1 0
15.6 1.1 0
16 1.1 0
16.4 1.1 0
16.8 1.1 0
17.2 1.1 0
17.6 1.1 0
18 1.1 0
18.4 1.1 0
18.8 1.1 0
19.2 1.1 0
19.6 1.1 0
20 1.1 0
20.4 1.1 0
20.8 1.1 0
21.2 1.1 0
21.6 1.1 0
22 1.1 0
22.4 1.1 0
22.8 1.1 0
23.2 1.1 0
23.6 1.1 0
24 1.1 0
24.4 1.1 0
24.8 1.1 0
25.2 1.1 0
25.6 1.1 0
26 1.1 0
26.4 1.1 0
26.8 1.1 0
27.2 1.1 0
27.6 1.1 0
28 1.1 0
28.4 1.1 0
28.8 1.1 0
29.2 1.1 0
29.6 1.1 0
30 1.1 0
30.4 1.1 0
30.8 1.1 0
31.2 1.1 0
31.6 1.1 0
32 1.1 0
32.4 1.1 0
32.8 1.1 0
33.2 1.1 0
33.6 1.1 0
34 1.1 0
34.4 1.1 0
34.8 1.1 0
35.2 1.1 0
35.6 1.1 0
36 1.1 0
36.4 1.1 0
36.8 1.1 0
37.2 1.1 0
37.6 1.1 0
38 1.1 0
38.4 1.1 0
38.8 1.1 0
39.2 1.1 0
39.6 1.1 0
40 1.1 0
40.4 1.1 0

POINT_DATA 1224

SCALARS phi double
LOOKUP_TABLE default
0.999994
1.00001
0.999956
0.999559
0.9983
0.995702
0.991537
0.9858
0.978615
0.970168
0.960673
0.950341
0.939373
0.927949
0.916225
0.904332
0.892377
0.880444
0.868584
0.856819
0.845133
0.833474
0.821755
0.809858
0.79765
0.784987
0.771732
0.757762
0.742978
0.72731
0.710721
0.693209
0.674799
0.655545
0.635523
0.614825
0.593554
0.571822
0.54974
0.52742
0.504968
0.482485
0.460063
0.437784
0.415723
0.393944
0.372505
0.351453
0.33083
0.310671
0.291008
0.271866
0.253269
0.235238
0.217793
0.200952
0.184734
0.169157
0.154239
0.139998
0.126452
0.11362
0.101519
0.0901643
0.0795687
0.0697424
0.0606907
0.0524135
0.0449043
0.0381495
0.0321283
0.026812
0.0221653
0.0181461
0.0147076
0.0117987
0.0093662
0.00735596
0.0057146
0.00439072
0.00333606
0.0025063
0.00186163
0.00136707
0.000992427
0.000712204
0.000505243
0.00035431
0.000245616
0.000168317
0.000114027
7.63683e-05
5.05664e-05
3.31036e-05
2.14279e-05
1.3715e-05
8.68069e-06
5.43408e-06
3.36146e-06
2.0726e-06
1.17531e-06
1.17531e-06
0.999994
1.00001
0.999956
0.999559
0.9983
0.995702
0.991537
0.9858
0.978615
0.970168
0.960673
0.950341
0.939373
0.927949
0.916225
0.904332
0.892377
0.880444
0.868584
0.856819
0.845133
0.833474
0.821755
0.809858
0.79765
0.784987
0.771732
0.757762
0.742978
0.72731
0.710721
0.693209
0.674799
0.655545
0.635523
0.614825
0.593554
0.571822
0.54974
0.52742
0.504968
0.482485
0.460063
0.437784
0.415723
0.393944
0.372505
0.351453
0.33083
0.310671
0.291008
0.271866
0.253269
0.235238
0.217793
0.200952
0.184734
0.169157
0.154239
0.139998
0.126452
0.11362
0.101519
0.0901643
0.0795687
0.0697424
0.0606907
0.0524135
0.0449043
0.0381495
0.0321283
0.026812
0.0221653
0.0181461
0.0147076
0.0117987
0.0093662
0.00735596
0.0057146
0.00439072
0.00333606
0.0025063
0.00186163
0.00136707
0.000992427
0.000712204
0.000505243
0.00035431
0.000245616
0.000168317
0.000114027
7.63683e-05
5.05664e-05
3.31036e-05
2.14279e-05
1.3715e-05
8.68069e-06
5.43408e-06
3.36146e-06
2.0726e-06
1.17531e-06
1.17531e-06
0.99999
1.00001
0.999544
0.998171
0.995436
0.991089
0.985125
0.977695
0.969019
0.959326
0.94884
0.937759
0.926259
0.91449
0.902576
0.890621
0.878708
0.866902
0.855248
0.843774
0.83248
0.821344
0.810315
0.799317
0.788252
0.777009
0.765467
0.753506
0.741017
0.727905
0.714096
0.699539
0.684211
0.668111
0.651261
0.633704
0.615498
0.596715
0.577433
0.557739
0.537717
0.517456
0.497037
0.47654
0.456037
0.435596
0.415278
0.395136
0.375218
0.355567
0.33622
0.317211
0.298568
0.280319
0.262487
0.245097
0.228169
0.211724
0.195783
0.180367
0.165496
0.151192
0.137476
0.124373
0.111904
0.100094
0.0889662
0.0785412
0.0688384
0.0598725
0.0516527
0.0441815
0.0374531
0.0314532
0.0261584
0.0215368
0.0175485
0.0141471
0.0112813
0.00889651
0.00693699
0.00534745
0.00407466
0.00306874
0.00228412
0.00168013
0.00122128
0.00087726
0.000622701
0.00043679
0.000302773
0.000207408
0.000140417
9.39546e-05
6.21365e-05
4.06195e-05
2.62485e-05
1.67704e-05
1.05827e-05
6.66089e-06
3.83498e-06
3.83498e-06
1.00047
0.999533
0.995342
0.988481
0.979264
0.968242
0.956033
0.943149
0.929951
0.916682
0.903497
0.890497
0.877746
0.865283
0.853133
0.841311
0.829823
0.818674
0.80786
0.797374
0.787204
0.777327
0.767708
0.7583
0.749043
0.739863
0.730676
0.721391
0.711913
0.70215
0.692017
0.681436
0.670346
0.658698
0.646461
0.633618
0.620171
0.606132
0.591528
0.576394
0.560774
0.544717
0.528275
0.511503
0.494455
0.477183
0.459739
0.442172
0.424527
0.406846
0.389169
0.371531
0.353967
0.336509
0.319186
0.302026
0.285057
0.268304
0.251794
0.23555
0.219598
0.203964
0.188675
0.173761
0.159254
0.14519
0.131611
0.118561
0.106087
0.0942387
0.0830657
0.0726134
0.0629218
0.0540221
0.0459345
0.0386656
0.0322086
0.026542
0.0216314
0.0174307
0.0138844
0.0109307
0.00850361
0.00653655
0.0049641
0.00372436
0.00276034
0.00202099
0.00146168
0.00104432
0.000737088
0.000513953
0.000354053
0.000240978
0.000162061
0.000107697
7.07263e-05
4.59103e-05
2.9422e-05
1.88141e-05
1.09808e-05
1.09808e-05
1.00913
0.990874
0.963593
0.936344
0.910574
0.88679
0.865195
0.845729
0.828186
0.812315
0.797874
0.784649
0.77246
0.761157
0.750619
0.740743
0.731448
0.722666
0.714341
0.706426
0.698879
0.691664
0.684744
0.678082
0.671637
0.665363
0.659209
0.653116
0.647023
0.640862
0.634567
0.628069
0.621304
0.614213
0.606741
0.598844
0.590484
0.581635
0.572277
0.562401
0.552004
0.541093
0.529678
0.517776
0.505407
0.492594
0.479364
0.465743
0.451759
0.437441
0.422819
0.407922
0.392779
0.377421
0.361877
0.346178
0.330356
0.314439
0.298461
0.282451
0.26644
0.250461
0.234547
0.218733
0.203061
0.187575
0.172327
0.157379
0.142799
0.128662
0.11505
0.102047
0.0897333
0.0781865
0.0674724
0.0576427
0.0487315
0.0407536
0.0337034
0.0275556
0.0222675
0.0177817
0.0140294
0.010935
0.00841903
0.00640238
0.00480878
0.00356723
0.00261353
0.00189117
0.0013516
0.000954114
0.000665286
0.000458245
0.000311816
0.000209626
0.000139239
9.14034e-05
5.92224e-05
3.82963e-05
2.25826e-05
2.25826e-05
1.10476
0.895237
0.791779
0.734418
0.698349
0.673559
0.65547
0.641661
0.630713
0.621752
0.614215
0.607733
0.602055
0.597005
0.592456
0.588315
0.584512
0.580993
0.577715
0.574646
0.571757
0.569027
0.566435
0.563963
0.561592
0.559302
0.557068
0.554865
0.552662
0.550424
0.548111
0.545683
0.543094
0.540297
0.537246
0.533894
0.530198
0.526115
0.521605
0.516636
0.511174
0.505196
0.498679
0.491606
0.483965
0.475748
0.466952
0.457577
0.447627
0.437112
0.426044
0.414438
0.402314
0.389695
0.376608
0.363083
0.349152
0.33485
0.320213
0.305279
0.290088
0.27468
0.259097
0.243384
0.22759
0.211769
0.195984
0.180308
0.164822
0.149619
0.1348
0.120472
0.106743
0.0937182
0.0814945
0.0701542
0.0597611
0.050357
0.0419598
0.0345631
0.0281378
0.0226348
0.0179885
0.0141217
0.0109499
0.00838551
0.00634195
0.00473673
0.00349378
0.00254493
0.00183077
0.00130072
0.000912753
0.000632651
0.000433161
0.000292982
0.00019578
0.000129285
8.42549e-05
5.48074e-05
3.25002e-05
3.25002e-05
-0.104763
0.104763
0.208221
0.265582
0.301651
0.326441
0.34453
0.358339
0.369287
0.378249
0.385785
0.392267
0.397945
0.402995
0.407544
0.411685
0.415488
0.419007
0.422285
0.425355
0.428243
0.430971
0.433556
0.436011
0.438346
0.440568
0.442679
0.444678
0.446561
0.448316
0.449931
0.451385
0.452654
0.453709
0.454519
0.455044
0.455248
0.455086
0.454517
0.453496
0.45198
0.449927
0.447298
0.444055
0.440165
0.4356
0.430336
0.424356
0.417646
0.410202
0.402025
0.393121
0.383505
0.373197
0.362225
0.350621
0.338422
0.32567
0.312411
0.298693
0.284566
0.270082
0.255296
0.240265
0.225049
0.209715
0.194337
0.178998
0.163788
0.148811
0.134173
0.11999
0.106375
0.0934407
0.0812869
0.0700003
0.0596481
0.0502749
0.0419007
0.034521
0.0281081
0.022614
0.0179741
0.0141119
0.0109433
0.00838104
0.00633898
0.00473479
0.00349251
0.00254412
0.00183025
0.0013004
0.000912549
0.000632525
0.000433084
0.000292936
0.000195752
0.000129268
8.42453e-05
5.48017e-05
3.24972e-05
3.24972e-05
-0.00912621
0.00912621
0.036407
0.0636559
0.0894265
0.11321
0.134805
0.154271
0.171814
0.187685
0.202126
0.215351
0.22754
0.238843
0.249381
0.259257
0.268552
0.277334
0.285659
0.293574
0.301117
0.308321
0.315212
0.321814
0.328146
0.334222
0.340054
0.345649
0.351012
0.356141
0.36103
0.365668
0.370038
0.374117
0.377878
0.381286
0.384302
0.386884
0.388986
0.390559
0.391555
0.391923
0.391618
0.390595
0.388814
0.386241
0.382849
0.378616
0.373531
0.36759
0.360798
0.353169
0.344725
0.335497
0.325523
0.31485
0.303529
0.291615
0.279169
0.266255
0.252936
0.239281
0.225357
0.211235
0.196989
0.182695
0.168437
0.154303
0.140386
0.126786
0.113603
0.100941
0.0888955
0.0775576
0.0670047
0.0572981
0.0484801
0.040572
0.0335734
0.0274635
0.0222029
0.0177368
0.0139986
0.010914
0.00840489
0.00639295
0.00480256
0.00356317
0.00261091
0.00188949
0.00135054
0.000953448
0.000664873
0.000457992
0.000311662
0.000209533
0.000139184
9.1371e-05
5.92035e-05
3.82853e-05
2.25767e-05
2.25767e-05
-0.000467025
0.000467025
0.00465755
0.0115186
0.0207356
0.0317579
0.0439669
0.0568514
0.0700488
0.083318
0.0965028
0.109503
0.122254
0.134717
0.146867
0.158689
0.170177
0.181327
0.19214
0.20262
0.212769
0.222595
0.232101
0.241295
0.250181
0.258764
0.267045
0.275024
0.282696
0.290052
0.297079
0.303758
0.310063
0.315964
0.321422
0.326397
0.330842
0.334706
0.337938
0.340485
0.342297
0.343324
0.343523
0.342854
0.341287
0.338799
0.335377
0.331016
0.325725
0.319519
0.312427
0.304485
0.29574
0.286246
0.276065
0.265265
0.253918
0.2421
0.229888
0.217362
0.204602
0.191688
0.178698
0.165712
0.15281
0.140072
0.127577
0.115407
0.103642
0.0923598
0.0816339
0.0715319
0.0621122
0.0534216
0.0454931
0.0383444
0.0319769
0.0263766
0.0215144
0.0173488
0.0138276
0.0108917
0.00847712
0.00651872
0.00495223
0.00371654
0.00275524
0.0020177
0.00145958
0.00104299
0.000736254
0.000513436
0.000353736
0.000240785
0.000161945
0.000107628
7.06858e-05
4.58866e-05
2.94084e-05
1.88062e-05
1.09767e-05
1.09767e-05
9.54834e-06
-9.54834e-06
0.000456061
0.00182854
0.00456363
0.00891112
0.0148752
0.0223044
0.0309812
0.0406737
0.0511603
0.0622408
0.0737403
0.0855094
0.0974232
0.109379
0.121293
0.1331
0.144746
0.156191
0.167403
0.178359
0.18904
0.199432
0.209523
0.219299
0.228747
0.237852
0.246591
0.254941
0.262871
0.270344
0.277317
0.283744
0.289571
0.294745
0.299209
0.302905
0.30578
0.307781
0.308863
0.308989
0.308129
0.306263
0.303385
0.299497
0.294615
0.288766
0.28199
0.274336
0.265863
0.256641
0.246744
0.236255
0.225259
0.213848
0.202111
0.19014
0.178028
0.165863
0.153732
0.141719
0.129906
0.118368
0.107178
0.0964036
0.0861073
0.0763449
0.0671652
0.0586087
0.0507064
0.0434791
0.0369365
0.0310767
0.0258865
0.0213423
0.0174106
0.0140504
0.011214
0.00885022
0.00690544
0.00532616
0.00406043
0.00305933
0.00227795
0.00167613
0.00121871
0.00087563
0.000621675
0.000436151
0.000302379
0.000207168
0.000140272
9.38677e-05
6.2085e-05
4.05893e-05
2.62309e-05
1.67604e-05
1.05769e-05
6.65764e-06
3.83329e-06
3.83329e-06
5.82414e-06
-5.82414e-06
4.36942e-05
0.000440584
0.00170024
0.00429825
0.00846288
0.0141997
0.0213849
0.0298313
0.039327
0.0496587
0.0606261
0.0720499
0.0837747
0.0956694
0.107626
0.119555
0.131388
0.143067
0.154549
0.165799
0.176789
0.187494
0.197892
0.207959
0.217671
0.226997
0.235904
0.244351
0.252293
0.259678
0.26645
0.272548
0.27791
0.282474
0.286179
0.288967
0.290788
0.291599
0.291367
0.290069
0.287696
0.284252
0.279754
0.274231
0.267728
0.260298
0.25201
0.242937
0.233165
0.222785
0.211892
0.200584
0.188964
0.177132
0.165189
0.153232
0.141357
0.129654
0.118208
0.107099
0.0964009
0.0861787
0.0764901
0.0673838
0.0588987
0.0510635
0.043896
0.0374031
0.0315805
0.0264137
0.0218782
0.0179412
0.0145626
0.0116971
0.0092957
0.0073075
0.00568161
0.00436848
0.00332121
0.00249648
0.00185521
0.0013629
0.000989752
0.000710504
0.000504173
0.000353643
0.000245205
0.000168066
0.000113875
7.62774e-05
5.05125e-05
3.3072e-05
2.14094e-05
1.37044e-05
8.67464e-06
5.43066e-06
3.35955e-06
2.07154e-06
1.17477e-06
1.17477e-06
5.82414e-06
-5.82414e-06
4.36942e-05
0.000440584
0.00170024
0.00429825
0.00846288
0.0141997
0.0213849
0.0298313
0.039327
0.0496587
0.0606261
0.0720499
0.0837747
0.0956694
0.107626
0.119555
0.131388
0.143067
0.154549
0.165799
0.176789
0.187494
0.197892
0.207959
0.217671
0.226997
0.235904
0.244351
0.252293
0.259678
0.26645
0.272548
0.27791
0.282474
0.286179
0.288967
0.290788
0.291599
0.291367
0.290069
0.287696
0.284252
0.279754
0.274231
0.267728
0.260298
0.25201
0.242937
0.233165
0.222785
0.211892
0.200584
0.188964
0.177132
0.165189
0.153232
0.141357
0.129654
0.118208
0.107099
0.0964009
0.0861787
0.0764901
0.0673838
0.0588987
0.0510635
0.043896
0.0374031
0.0315805
0.0264137
0.0218782
0.0179412
0.0145626
0.0116971
0.0092957
0.0073075
0.00568161
0.00436848
0.00332121
0.00249648
0.00185521
0.0013629
0.000989752
0.000710504
0.000504173
0.000353643
0.000245205
0.000168066
0.000113875
7.62774e-05
5.05125e-05
3.3072e-05
2.14094e-05
1.37044e-05
8.67464e-06
5.43066e-06
3.35955e-06
2.07154e-06
1.17477e-06
1.17477e-06
