# vtk DataFile Version 2.0
FlowField
ASCII
DATASET STRUCTURED_GRID
DIMENSIONS 101 11 1 
POINTS 1111 double
0 0 0
0.3 0 0
0.6 0 0
0.9 0 0
1.2 0 0
1.5 0 0
1.8 0 0
2.1 0 0
2.4 0 0
2.7 0 0
3 0 0
3.3 0 0
3.6 0 0
3.9 0 0
4.2 0 0
4.5 0 0
4.8 0 0
5.1 0 0
5.4 0 0
5.7 0 0
6 0 0
6.3 0 0
6.6 0 0
6.9 0 0
7.2 0 0
7.5 0 0
7.8 0 0
8.1 0 0
8.4 0 0
8.7 0 0
9 0 0
9.3 0 0
9.6 0 0
9.9 0 0
10.2 0 0
10.5 0 0
10.8 0 0
11.1 0 0
11.4 0 0
11.7 0 0
12 0 0
12.3 0 0
12.6 0 0
12.9 0 0
13.2 0 0
13.5 0 0
13.8 0 0
14.1 0 0
14.4 0 0
14.7 0 0
15 0 0
15.3 0 0
15.6 0 0
15.9 0 0
16.2 0 0
16.5 0 0
16.8 0 0
17.1 0 0
17.4 0 0
17.7 0 0
18 0 0
18.3 0 0
18.6 0 0
18.9 0 0
19.2 0 0
19.5 0 0
19.8 0 0
20.1 0 0
20.4 0 0
20.7 0 0
21 0 0
21.3 0 0
21.6 0 0
21.9 0 0
22.2 0 0
22.5 0 0
22.8 0 0
23.1 0 0
23.4 0 0
23.7 0 0
24 0 0
24.3 0 0
24.6 0 0
24.9 0 0
25.2 0 0
25.5 0 0
25.8 0 0
26.1 0 0
26.4 0 0
26.7 0 0
27 0 0
27.3 0 0
27.6 0 0
27.9 0 0
28.2 0 0
28.5 0 0
28.8 0 0
29.1 0 0
29.4 0 0
29.7 0 0
30 0 0
0 0.1 0
0.3 0.1 0
0.6 0.1 0
0.9 0.1 0
1.2 0.1 0
1.5 0.1 0
1.8 0.1 0
2.1 0.1 0
2.4 0.1 0
2.7 0.1 0
3 0.1 0
3.3 0.1 0
3.6 0.1 0
3.9 0.1 0
4.2 0.1 0
4.5 0.1 0
4.8 0.1 0
5.1 0.1 0
5.4 0.1 0
5.7 0.1 0
6 0.1 0
6.3 0.1 0
6.6 0.1 0
6.9 0.1 0
7.2 0.1 0
7.5 0.1 0
7.8 0.1 0
8.1 0.1 0
8.4 0.1 0
8.7 0.1 0
9 0.1 0
9.3 0.1 0
9.6 0.1 0
9.9 0.1 0
10.2 0.1 0
10.5 0.1 0
10.8 0.1 0
11.1 0.1 0
11.4 0.1 0
11.7 0.1 0
12 0.1 0
12.3 0.1 0
12.6 0.1 0
12.9 0.1 0
13.2 0.1 0
13.5 0.1 0
13.8 0.1 0
14.1 0.1 0
14.4 0.1 0
14.7 0.1 0
15 0.1 0
15.3 0.1 0
15.6 0.1 0
15.9 0.1 0
16.2 0.1 0
16.5 0.1 0
16.8 0.1 0
17.1 0.1 0
17.4 0.1 0
17.7 0.1 0
18 0.1 0
18.3 0.1 0
18.6 0.1 0
18.9 0.1 0
19.2 0.1 0
19.5 0.1 0
19.8 0.1 0
20.1 0.1 0
20.4 0.1 0
20.7 0.1 0
21 0.1 0
21.3 0.1 0
21.6 0.1 0
21.9 0.1 0
22.2 0.1 0
22.5 0.1 0
22.8 0.1 0
23.1 0.1 0
23.4 0.1 0
23.7 0.1 0
24 0.1 0
24.3 0.1 0
24.6 0.1 0
24.9 0.1 0
25.2 0.1 0
25.5 0.1 0
25.8 0.1 0
26.1 0.1 0
26.4 0.1 0
26.7 0.1 0
27 0.1 0
27.3 0.1 0
27.6 0.1 0
27.9 0.1 0
28.2 0.1 0
28.5 0.1 0
28.8 0.1 0
29.1 0.1 0
29.4 0.1 0
29.7 0.1 0
30 0.1 0
0 0.2 0
0.3 0.2 0
0.6 0.2 0
0.9 0.2 0
1.2 0.2 0
1.5 0.2 0
1.8 0.2 0
2.1 0.2 0
2.4 0.2 0
2.7 0.2 0
3 0.2 0
3.3 0.2 0
3.6 0.2 0
3.9 0.2 0
4.2 0.2 0
4.5 0.2 0
4.8 0.2 0
5.1 0.2 0
5.4 0.2 0
5.7 0.2 0
6 0.2 0
6.3 0.2 0
6.6 0.2 0
6.9 0.2 0
7.2 0.2 0
7.5 0.2 0
7.8 0.2 0
8.1 0.2 0
8.4 0.2 0
8.7 0.2 0
9 0.2 0
9.3 0.2 0
9.6 0.2 0
9.9 0.2 0
10.2 0.2 0
10.5 0.2 0
10.8 0.2 0
11.1 0.2 0
11.4 0.2 0
11.7 0.2 0
12 0.2 0
12.3 0.2 0
12.6 0.2 0
12.9 0.2 0
13.2 0.2 0
13.5 0.2 0
13.8 0.2 0
14.1 0.2 0
14.4 0.2 0
14.7 0.2 0
15 0.2 0
15.3 0.2 0
15.6 0.2 0
15.9 0.2 0
16.2 0.2 0
16.5 0.2 0
16.8 0.2 0
17.1 0.2 0
17.4 0.2 0
17.7 0.2 0
18 0.2 0
18.3 0.2 0
18.6 0.2 0
18.9 0.2 0
19.2 0.2 0
19.5 0.2 0
19.8 0.2 0
20.1 0.2 0
20.4 0.2 0
20.7 0.2 0
21 0.2 0
21.3 0.2 0
21.6 0.2 0
21.9 0.2 0
22.2 0.2 0
22.5 0.2 0
22.8 0.2 0
23.1 0.2 0
23.4 0.2 0
23.7 0.2 0
24 0.2 0
24.3 0.2 0
24.6 0.2 0
24.9 0.2 0
25.2 0.2 0
25.5 0.2 0
25.8 0.2 0
26.1 0.2 0
26.4 0.2 0
26.7 0.2 0
27 0.2 0
27.3 0.2 0
27.6 0.2 0
27.9 0.2 0
28.2 0.2 0
28.5 0.2 0
28.8 0.2 0
29.1 0.2 0
29.4 0.2 0
29.7 0.2 0
30 0.2 0
0 0.3 0
0.3 0.3 0
0.6 0.3 0
0.9 0.3 0
1.2 0.3 0
1.5 0.3 0
1.8 0.3 0
2.1 0.3 0
2.4 0.3 0
2.7 0.3 0
3 0.3 0
3.3 0.3 0
3.6 0.3 0
3.9 0.3 0
4.2 0.3 0
4.5 0.3 0
4.8 0.3 0
5.1 0.3 0
5.4 0.3 0
5.7 0.3 0
6 0.3 0
6.3 0.3 0
6.6 0.3 0
6.9 0.3 0
7.2 0.3 0
7.5 0.3 0
7.8 0.3 0
8.1 0.3 0
8.4 0.3 0
8.7 0.3 0
9 0.3 0
9.3 0.3 0
9.6 0.3 0
9.9 0.3 0
10.2 0.3 0
10.5 0.3 0
10.8 0.3 0
11.1 0.3 0
11.4 0.3 0
11.7 0.3 0
12 0.3 0
12.3 0.3 0
12.6 0.3 0
12.9 0.3 0
13.2 0.3 0
13.5 0.3 0
13.8 0.3 0
14.1 0.3 0
14.4 0.3 0
14.7 0.3 0
15 0.3 0
15.3 0.3 0
15.6 0.3 0
15.9 0.3 0
16.2 0.3 0
16.5 0.3 0
16.8 0.3 0
17.1 0.3 0
17.4 0.3 0
17.7 0.3 0
18 0.3 0
18.3 0.3 0
18.6 0.3 0
18.9 0.3 0
19.2 0.3 0
19.5 0.3 0
19.8 0.3 0
20.1 0.3 0
20.4 0.3 0
20.7 0.3 0
21 0.3 0
21.3 0.3 0
21.6 0.3 0
21.9 0.3 0
22.2 0.3 0
22.5 0.3 0
22.8 0.3 0
23.1 0.3 0
23.4 0.3 0
23.7 0.3 0
24 0.3 0
24.3 0.3 0
24.6 0.3 0
24.9 0.3 0
25.2 0.3 0
25.5 0.3 0
25.8 0.3 0
26.1 0.3 0
26.4 0.3 0
26.7 0.3 0
27 0.3 0
27.3 0.3 0
27.6 0.3 0
27.9 0.3 0
28.2 0.3 0
28.5 0.3 0
28.8 0.3 0
29.1 0.3 0
29.4 0.3 0
29.7 0.3 0
30 0.3 0
0 0.4 0
0.3 0.4 0
0.6 0.4 0
0.9 0.4 0
1.2 0.4 0
1.5 0.4 0
1.8 0.4 0
2.1 0.4 0
2.4 0.4 0
2.7 0.4 0
3 0.4 0
3.3 0.4 0
3.6 0.4 0
3.9 0.4 0
4.2 0.4 0
4.5 0.4 0
4.8 0.4 0
5.1 0.4 0
5.4 0.4 0
5.7 0.4 0
6 0.4 0
6.3 0.4 0
6.6 0.4 0
6.9 0.4 0
7.2 0.4 0
7.5 0.4 0
7.8 0.4 0
8.1 0.4 0
8.4 0.4 0
8.7 0.4 0
9 0.4 0
9.3 0.4 0
9.6 0.4 0
9.9 0.4 0
10.2 0.4 0
10.5 0.4 0
10.8 0.4 0
11.1 0.4 0
11.4 0.4 0
11.7 0.4 0
12 0.4 0
12.3 0.4 0
12.6 0.4 0
12.9 0.4 0
13.2 0.4 0
13.5 0.4 0
13.8 0.4 0
14.1 0.4 0
14.4 0.4 0
14.7 0.4 0
15 0.4 0
15.3 0.4 0
15.6 0.4 0
15.9 0.4 0
16.2 0.4 0
16.5 0.4 0
16.8 0.4 0
17.1 0.4 0
17.4 0.4 0
17.7 0.4 0
18 0.4 0
18.3 0.4 0
18.6 0.4 0
18.9 0.4 0
19.2 0.4 0
19.5 0.4 0
19.8 0.4 0
20.1 0.4 0
20.4 0.4 0
20.7 0.4 0
21 0.4 0
21.3 0.4 0
21.6 0.4 0
21.9 0.4 0
22.2 0.4 0
22.5 0.4 0
22.8 0.4 0
23.1 0.4 0
23.4 0.4 0
23.7 0.4 0
24 0.4 0
24.3 0.4 0
24.6 0.4 0
24.9 0.4 0
25.2 0.4 0
25.5 0.4 0
25.8 0.4 0
26.1 0.4 0
26.4 0.4 0
26.7 0.4 0
27 0.4 0
27.3 0.4 0
27.6 0.4 0
27.9 0.4 0
28.2 0.4 0
28.5 0.4 0
28.8 0.4 0
29.1 0.4 0
29.4 0.4 0
29.7 0.4 0
30 0.4 0
0 0.5 0
0.3 0.5 0
0.6 0.5 0
0.9 0.5 0
1.2 0.5 0
1.5 0.5 0
1.8 0.5 0
2.1 0.5 0
2.4 0.5 0
2.7 0.5 0
3 0.5 0
3.3 0.5 0
3.6 0.5 0
3.9 0.5 0
4.2 0.5 0
4.5 0.5 0
4.8 0.5 0
5.1 0.5 0
5.4 0.5 0
5.7 0.5 0
6 0.5 0
6.3 0.5 0
6.6 0.5 0
6.9 0.5 0
7.2 0.5 0
7.5 0.5 0
7.8 0.5 0
8.1 0.5 0
8.4 0.5 0
8.7 0.5 0
9 0.5 0
9.3 0.5 0
9.6 0.5 0
9.9 0.5 0
10.2 0.5 0
10.5 0.5 0
10.8 0.5 0
11.1 0.5 0
11.4 0.5 0
11.7 0.5 0
12 0.5 0
12.3 0.5 0
12.6 0.5 0
12.9 0.5 0
13.2 0.5 0
13.5 0.5 0
13.8 0.5 0
14.1 0.5 0
14.4 0.5 0
14.7 0.5 0
15 0.5 0
15.3 0.5 0
15.6 0.5 0
15.9 0.5 0
16.2 0.5 0
16.5 0.5 0
16.8 0.5 0
17.1 0.5 0
17.4 0.5 0
17.7 0.5 0
18 0.5 0
18.3 0.5 0
18.6 0.5 0
18.9 0.5 0
19.2 0.5 0
19.5 0.5 0
19.8 0.5 0
20.1 0.5 0
20.4 0.5 0
20.7 0.5 0
21 0.5 0
21.3 0.5 0
21.6 0.5 0
21.9 0.5 0
22.2 0.5 0
22.5 0.5 0
22.8 0.5 0
23.1 0.5 0
23.4 0.5 0
23.7 0.5 0
24 0.5 0
24.3 0.5 0
24.6 0.5 0
24.9 0.5 0
25.2 0.5 0
25.5 0.5 0
25.8 0.5 0
26.1 0.5 0
26.4 0.5 0
26.7 0.5 0
27 0.5 0
27.3 0.5 0
27.6 0.5 0
27.9 0.5 0
28.2 0.5 0
28.5 0.5 0
28.8 0.5 0
29.1 0.5 0
29.4 0.5 0
29.7 0.5 0
30 0.5 0
0 0.6 0
0.3 0.6 0
0.6 0.6 0
0.9 0.6 0
1.2 0.6 0
1.5 0.6 0
1.8 0.6 0
2.1 0.6 0
2.4 0.6 0
2.7 0.6 0
3 0.6 0
3.3 0.6 0
3.6 0.6 0
3.9 0.6 0
4.2 0.6 0
4.5 0.6 0
4.8 0.6 0
5.1 0.6 0
5.4 0.6 0
5.7 0.6 0
6 0.6 0
6.3 0.6 0
6.6 0.6 0
6.9 0.6 0
7.2 0.6 0
7.5 0.6 0
7.8 0.6 0
8.1 0.6 0
8.4 0.6 0
8.7 0.6 0
9 0.6 0
9.3 0.6 0
9.6 0.6 0
9.9 0.6 0
10.2 0.6 0
10.5 0.6 0
10.8 0.6 0
11.1 0.6 0
11.4 0.6 0
11.7 0.6 0
12 0.6 0
12.3 0.6 0
12.6 0.6 0
12.9 0.6 0
13.2 0.6 0
13.5 0.6 0
13.8 0.6 0
14.1 0.6 0
14.4 0.6 0
14.7 0.6 0
15 0.6 0
15.3 0.6 0
15.6 0.6 0
15.9 0.6 0
16.2 0.6 0
16.5 0.6 0
16.8 0.6 0
17.1 0.6 0
17.4 0.6 0
17.7 0.6 0
18 0.6 0
18.3 0.6 0
18.6 0.6 0
18.9 0.6 0
19.2 0.6 0
19.5 0.6 0
19.8 0.6 0
20.1 0.6 0
20.4 0.6 0
20.7 0.6 0
21 0.6 0
21.3 0.6 0
21.6 0.6 0
21.9 0.6 0
22.2 0.6 0
22.5 0.6 0
22.8 0.6 0
23.1 0.6 0
23.4 0.6 0
23.7 0.6 0
24 0.6 0
24.3 0.6 0
24.6 0.6 0
24.9 0.6 0
25.2 0.6 0
25.5 0.6 0
25.8 0.6 0
26.1 0.6 0
26.4 0.6 0
26.7 0.6 0
27 0.6 0
27.3 0.6 0
27.6 0.6 0
27.9 0.6 0
28.2 0.6 0
28.5 0.6 0
28.8 0.6 0
29.1 0.6 0
29.4 0.6 0
29.7 0.6 0
30 0.6 0
0 0.7 0
0.3 0.7 0
0.6 0.7 0
0.9 0.7 0
1.2 0.7 0
1.5 0.7 0
1.8 0.7 0
2.1 0.7 0
2.4 0.7 0
2.7 0.7 0
3 0.7 0
3.3 0.7 0
3.6 0.7 0
3.9 0.7 0
4.2 0.7 0
4.5 0.7 0
4.8 0.7 0
5.1 0.7 0
5.4 0.7 0
5.7 0.7 0
6 0.7 0
6.3 0.7 0
6.6 0.7 0
6.9 0.7 0
7.2 0.7 0
7.5 0.7 0
7.8 0.7 0
8.1 0.7 0
8.4 0.7 0
8.7 0.7 0
9 0.7 0
9.3 0.7 0
9.6 0.7 0
9.9 0.7 0
10.2 0.7 0
10.5 0.7 0
10.8 0.7 0
11.1 0.7 0
11.4 0.7 0
11.7 0.7 0
12 0.7 0
12.3 0.7 0
12.6 0.7 0
12.9 0.7 0
13.2 0.7 0
13.5 0.7 0
13.8 0.7 0
14.1 0.7 0
14.4 0.7 0
14.7 0.7 0
15 0.7 0
15.3 0.7 0
15.6 0.7 0
15.9 0.7 0
16.2 0.7 0
16.5 0.7 0
16.8 0.7 0
17.1 0.7 0
17.4 0.7 0
17.7 0.7 0
18 0.7 0
18.3 0.7 0
18.6 0.7 0
18.9 0.7 0
19.2 0.7 0
19.5 0.7 0
19.8 0.7 0
20.1 0.7 0
20.4 0.7 0
20.7 0.7 0
21 0.7 0
21.3 0.7 0
21.6 0.7 0
21.9 0.7 0
22.2 0.7 0
22.5 0.7 0
22.8 0.7 0
23.1 0.7 0
23.4 0.7 0
23.7 0.7 0
24 0.7 0
24.3 0.7 0
24.6 0.7 0
24.9 0.7 0
25.2 0.7 0
25.5 0.7 0
25.8 0.7 0
26.1 0.7 0
26.4 0.7 0
26.7 0.7 0
27 0.7 0
27.3 0.7 0
27.6 0.7 0
27.9 0.7 0
28.2 0.7 0
28.5 0.7 0
28.8 0.7 0
29.1 0.7 0
29.4 0.7 0
29.7 0.7 0
30 0.7 0
0 0.8 0
0.3 0.8 0
0.6 0.8 0
0.9 0.8 0
1.2 0.8 0
1.5 0.8 0
1.8 0.8 0
2.1 0.8 0
2.4 0.8 0
2.7 0.8 0
3 0.8 0
3.3 0.8 0
3.6 0.8 0
3.9 0.8 0
4.2 0.8 0
4.5 0.8 0
4.8 0.8 0
5.1 0.8 0
5.4 0.8 0
5.7 0.8 0
6 0.8 0
6.3 0.8 0
6.6 0.8 0
6.9 0.8 0
7.2 0.8 0
7.5 0.8 0
7.8 0.8 0
8.1 0.8 0
8.4 0.8 0
8.7 0.8 0
9 0.8 0
9.3 0.8 0
9.6 0.8 0
9.9 0.8 0
10.2 0.8 0
10.5 0.8 0
10.8 0.8 0
11.1 0.8 0
11.4 0.8 0
11.7 0.8 0
12 0.8 0
12.3 0.8 0
12.6 0.8 0
12.9 0.8 0
13.2 0.8 0
13.5 0.8 0
13.8 0.8 0
14.1 0.8 0
14.4 0.8 0
14.7 0.8 0
15 0.8 0
15.3 0.8 0
15.6 0.8 0
15.9 0.8 0
16.2 0.8 0
16.5 0.8 0
16.8 0.8 0
17.1 0.8 0
17.4 0.8 0
17.7 0.8 0
18 0.8 0
18.3 0.8 0
18.6 0.8 0
18.9 0.8 0
19.2 0.8 0
19.5 0.8 0
19.8 0.8 0
20.1 0.8 0
20.4 0.8 0
20.7 0.8 0
21 0.8 0
21.3 0.8 0
21.6 0.8 0
21.9 0.8 0
22.2 0.8 0
22.5 0.8 0
22.8 0.8 0
23.1 0.8 0
23.4 0.8 0
23.7 0.8 0
24 0.8 0
24.3 0.8 0
24.6 0.8 0
24.9 0.8 0
25.2 0.8 0
25.5 0.8 0
25.8 0.8 0
26.1 0.8 0
26.4 0.8 0
26.7 0.8 0
27 0.8 0
27.3 0.8 0
27.6 0.8 0
27.9 0.8 0
28.2 0.8 0
28.5 0.8 0
28.8 0.8 0
29.1 0.8 0
29.4 0.8 0
29.7 0.8 0
30 0.8 0
0 0.9 0
0.3 0.9 0
0.6 0.9 0
0.9 0.9 0
1.2 0.9 0
1.5 0.9 0
1.8 0.9 0
2.1 0.9 0
2.4 0.9 0
2.7 0.9 0
3 0.9 0
3.3 0.9 0
3.6 0.9 0
3.9 0.9 0
4.2 0.9 0
4.5 0.9 0
4.8 0.9 0
5.1 0.9 0
5.4 0.9 0
5.7 0.9 0
6 0.9 0
6.3 0.9 0
6.6 0.9 0
6.9 0.9 0
7.2 0.9 0
7.5 0.9 0
7.8 0.9 0
8.1 0.9 0
8.4 0.9 0
8.7 0.9 0
9 0.9 0
9.3 0.9 0
9.6 0.9 0
9.9 0.9 0
10.2 0.9 0
10.5 0.9 0
10.8 0.9 0
11.1 0.9 0
11.4 0.9 0
11.7 0.9 0
12 0.9 0
12.3 0.9 0
12.6 0.9 0
12.9 0.9 0
13.2 0.9 0
13.5 0.9 0
13.8 0.9 0
14.1 0.9 0
14.4 0.9 0
14.7 0.9 0
15 0.9 0
15.3 0.9 0
15.6 0.9 0
15.9 0.9 0
16.2 0.9 0
16.5 0.9 0
16.8 0.9 0
17.1 0.9 0
17.4 0.9 0
17.7 0.9 0
18 0.9 0
18.3 0.9 0
18.6 0.9 0
18.9 0.9 0
19.2 0.9 0
19.5 0.9 0
19.8 0.9 0
20.1 0.9 0
20.4 0.9 0
20.7 0.9 0
21 0.9 0
21.3 0.9 0
21.6 0.9 0
21.9 0.9 0
22.2 0.9 0
22.5 0.9 0
22.8 0.9 0
23.1 0.9 0
23.4 0.9 0
23.7 0.9 0
24 0.9 0
24.3 0.9 0
24.6 0.9 0
24.9 0.9 0
25.2 0.9 0
25.5 0.9 0
25.8 0.9 0
26.1 0.9 0
26.4 0.9 0
26.7 0.9 0
27 0.9 0
27.3 0.9 0
27.6 0.9 0
27.9 0.9 0
28.2 0.9 0
28.5 0.9 0
28.8 0.9 0
29.1 0.9 0
29.4 0.9 0
29.7 0.9 0
30 0.9 0
0 1 0
0.3 1 0
0.6 1 0
0.9 1 0
1.2 1 0
1.5 1 0
1.8 1 0
2.1 1 0
2.4 1 0
2.7 1 0
3 1 0
3.3 1 0
3.6 1 0
3.9 1 0
4.2 1 0
4.5 1 0
4.8 1 0
5.1 1 0
5.4 1 0
5.7 1 0
6 1 0
6.3 1 0
6.6 1 0
6.9 1 0
7.2 1 0
7.5 1 0
7.8 1 0
8.1 1 0
8.4 1 0
8.7 1 0
9 1 0
9.3 1 0
9.6 1 0
9.9 1 0
10.2 1 0
10.5 1 0
10.8 1 0
11.1 1 0
11.4 1 0
11.7 1 0
12 1 0
12.3 1 0
12.6 1 0
12.9 1 0
13.2 1 0
13.5 1 0
13.8 1 0
14.1 1 0
14.4 1 0
14.7 1 0
15 1 0
15.3 1 0
15.6 1 0
15.9 1 0
16.2 1 0
16.5 1 0
16.8 1 0
17.1 1 0
17.4 1 0
17.7 1 0
18 1 0
18.3 1 0
18.6 1 0
18.9 1 0
19.2 1 0
19.5 1 0
19.8 1 0
20.1 1 0
20.4 1 0
20.7 1 0
21 1 0
21.3 1 0
21.6 1 0
21.9 1 0
22.2 1 0
22.5 1 0
22.8 1 0
23.1 1 0
23.4 1 0
23.7 1 0
24 1 0
24.3 1 0
24.6 1 0
24.9 1 0
25.2 1 0
25.5 1 0
25.8 1 0
26.1 1 0
26.4 1 0
26.7 1 0
27 1 0
27.3 1 0
27.6 1 0
27.9 1 0
28.2 1 0
28.5 1 0
28.8 1 0
29.1 1 0
29.4 1 0
29.7 1 0
30 1 0

POINT_DATA 1111

SCALARS v double
LOOKUP_TABLE default
0
0
0
0
0
0
0
0
0
0
0
0
0
0
0
0
0
0
0
0
0
0
0
0
0
0
0
0
0
0
0
0
0
0
0
0
0
0
0
0
0
0
0
0
0
0
0
0
0
0
0
0
0
0
0
0
0
0
0
0
0
0
0
0
0
0
0
0
0
0
0
0
0
0
0
0
0
0
0
0
0
0
0
0
0
0
0
0
0
0
0
0
0
0
0
0
0
0
0
0
0
-0.0359858
0.0359858
0.0367618
0.0309382
0.0247936
0.0193687
0.0148922
0.011356
0.00865025
0.00662564
0.00513158
0.00403565
0.0032309
0.00263581
0.00219043
0.00185166
0.00158906
0.00138137
0.00121379
0.00107594
0.0009605
0.000862336
0.000777777
0.000704119
0.00063935
0.000581984
0.00053088
0.000485104
0.000443914
0.000406745
0.000373117
0.00034259
0.00031481
0.000289513
0.000266437
0.000245332
0.000226011
0.00020832
0.000192095
0.000177196
0.00016351
0.000150925
0.000139346
0.00012869
0.000118871
0.000109824
0.000101487
9.37919e-05
8.66914e-05
8.01453e-05
7.41026e-05
6.85159e-05
6.33557e-05
5.85947e-05
5.41954e-05
5.01257e-05
4.63659e-05
4.28917e-05
3.96774e-05
3.67069e-05
3.39625e-05
3.14222e-05
2.90717e-05
2.69e-05
2.48927e-05
2.30359e-05
2.1318e-05
1.97287e-05
1.82583e-05
1.68971e-05
1.5636e-05
1.44658e-05
1.33778e-05
1.23645e-05
1.14184e-05
1.05318e-05
9.69924e-06
8.91572e-06
8.17537e-06
7.47407e-06
6.8096e-06
6.18013e-06
5.58392e-06
5.01986e-06
4.48845e-06
3.98988e-06
3.5241e-06
3.09198e-06
2.69394e-06
2.33001e-06
1.99993e-06
1.70324e-06
1.43881e-06
1.20603e-06
1.00125e-06
8.25972e-07
6.74747e-07
5.15786e-07
4.58079e-07
-1.14723e-07
-1.14723e-07
-0.0259716
0.0259716
0.03387
0.0318859
0.0277092
0.0232683
0.0192106
0.0157606
0.0129474
0.0107074
0.00894298
0.00755456
0.00645539
0.00557598
0.00486305
0.00427677
0.00378788
0.00337487
0.00302191
0.00271716
0.00245169
0.00221874
0.00201303
0.00183038
0.00166744
0.00152153
0.00139043
0.00127226
0.00116544
0.0010687
0.000980898
0.000901031
0.000828266
0.000761896
0.000701265
0.00064579
0.00059499
0.000548433
0.000505713
0.000466485
0.000430437
0.000397286
0.000366785
0.000338708
0.000312841
0.000289007
0.000267036
0.00024677
0.000228074
0.000210827
0.000194904
0.000180197
0.000166618
0.00015408
0.000142494
0.000131786
0.000121892
0.000112748
0.000104293
9.64791e-05
8.92558e-05
8.25738e-05
7.63955e-05
7.0685e-05
6.54047e-05
6.05206e-05
5.60029e-05
5.18239e-05
4.79569e-05
4.4376e-05
4.1057e-05
3.79764e-05
3.51122e-05
3.24441e-05
2.99519e-05
2.76174e-05
2.5425e-05
2.33607e-05
2.14108e-05
1.95657e-05
1.78185e-05
1.61636e-05
1.45968e-05
1.31166e-05
1.17228e-05
1.04157e-05
9.19598e-06
8.06524e-06
7.02407e-06
6.07264e-06
5.21024e-06
4.43546e-06
3.74542e-06
3.13745e-06
2.60431e-06
2.14759e-06
1.74524e-06
1.38634e-06
1.06586e-06
-3.08749e-07
-3.08749e-07
-0.0142107
0.0142107
0.0209505
0.0208659
0.0189119
0.0164968
0.0141326
0.0120299
0.0102539
0.00879499
0.00761041
0.00664859
0.0058616
0.0052098
0.00466223
0.00419557
0.0037926
0.00344064
0.00313027
0.0028544
0.00260764
0.00238584
0.00218565
0.00200438
0.00183981
0.00169009
0.00155364
0.00142906
0.00131519
0.001211
0.00111556
0.00102804
0.000947731
0.000874001
0.000806249
0.000743944
0.000686631
0.000633885
0.000585311
0.000540565
0.000499326
0.000461305
0.000426248
0.000393908
0.000364062
0.000336519
0.000311093
0.000287612
0.000265928
0.000245902
0.000227397
0.000210296
0.000194497
0.000179897
0.000166398
0.000153919
0.000142384
0.000131717
0.000121854
0.000112735
0.000104302
9.65002e-05
8.92864e-05
8.26168e-05
7.64476e-05
7.07405e-05
6.54613e-05
6.05778e-05
5.60584e-05
5.18731e-05
4.79941e-05
4.43946e-05
4.10494e-05
3.79348e-05
3.50276e-05
3.23069e-05
2.97547e-05
2.73536e-05
2.50882e-05
2.29473e-05
2.09215e-05
1.90035e-05
1.71883e-05
1.54731e-05
1.38572e-05
1.23399e-05
1.09223e-05
9.60543e-06
8.38998e-06
7.27622e-06
6.26358e-06
5.35067e-06
4.53465e-06
3.81254e-06
3.17752e-06
2.6297e-06
2.14617e-06
1.72613e-06
1.29234e-06
-3.49684e-07
-3.49684e-07
-0.00447524
0.00447524
0.00693973
0.00706182
0.00650814
0.0057693
0.00502377
0.0043476
0.00376775
0.00328502
0.00288796
0.00256119
0.00228996
0.00206189
0.00186721
0.00169854
0.00155052
0.00141918
0.00130159
0.00119556
0.00109944
0.00101197
0.000932119
0.000859032
0.00079203
0.000730539
0.000674037
0.000622055
0.000574214
0.000530178
0.000489608
0.000452201
0.000417718
0.000385931
0.0003566
0.000329528
0.00030455
0.000281495
0.000260207
0.00024055
0.000222392
0.000205619
0.000190131
0.000175816
0.000162585
0.000150362
0.000139066
0.000128621
0.000118967
0.000110045
0.000101793
9.41614e-05
8.71085e-05
8.05871e-05
7.45527e-05
6.89727e-05
6.3814e-05
5.90408e-05
5.46259e-05
5.05445e-05
4.67673e-05
4.32719e-05
4.0041e-05
3.70532e-05
3.42882e-05
3.17297e-05
2.93633e-05
2.71744e-05
2.51483e-05
2.32718e-05
2.15326e-05
1.99188e-05
1.84194e-05
1.70237e-05
1.57211e-05
1.45027e-05
1.33605e-05
1.22863e-05
1.12732e-05
1.03164e-05
9.41155e-06
8.55495e-06
7.74435e-06
6.97845e-06
6.25661e-06
5.57834e-06
4.94418e-06
4.35448e-06
3.80941e-06
3.30915e-06
2.85349e-06
2.44184e-06
2.07315e-06
1.74605e-06
1.45794e-06
1.20854e-06
9.88493e-07
7.98613e-07
5.93394e-07
-1.52705e-07
-1.52705e-07
0.00447521
-0.00447521
-0.00693972
-0.00706179
-0.0065081
-0.0057693
-0.00502378
-0.00434759
-0.00376775
-0.00328503
-0.00288793
-0.00256118
-0.00228998
-0.00206188
-0.00186718
-0.00169853
-0.00155052
-0.00141917
-0.00130157
-0.00119555
-0.00109944
-0.00101196
-0.000932095
-0.000859022
-0.000792032
-0.000730526
-0.000674011
-0.000622048
-0.00057422
-0.000530165
-0.000489585
-0.000452198
-0.000417721
-0.000385916
-0.000356586
-0.000329527
-0.000304547
-0.000281487
-0.000260199
-0.000240541
-0.000222389
-0.000205618
-0.000190121
-0.000175809
-0.000162585
-0.000150358
-0.000139059
-0.000128619
-0.000118966
-0.00011004
-0.00010179
-9.41622e-05
-8.71062e-05
-8.05822e-05
-7.45513e-05
-6.8972e-05
-6.38109e-05
-5.90391e-05
-5.46244e-05
-5.05398e-05
-4.67636e-05
-4.32705e-05
-4.00372e-05
-3.70467e-05
-3.42817e-05
-3.17239e-05
-2.93568e-05
-2.71661e-05
-2.51388e-05
-2.32616e-05
-2.15217e-05
-1.99073e-05
-1.84072e-05
-1.70109e-05
-1.57086e-05
-1.44906e-05
-1.33482e-05
-1.22746e-05
-1.1263e-05
-1.03075e-05
-9.40405e-06
-8.54927e-06
-7.74078e-06
-6.97708e-06
-6.25744e-06
-5.58183e-06
-4.95012e-06
-4.36276e-06
-3.82008e-06
-3.32206e-06
-2.86859e-06
-2.45889e-06
-2.09189e-06
-1.76614e-06
-1.47892e-06
-1.22968e-06
-1.00904e-06
-8.16217e-07
-6.07617e-07
1.56035e-07
1.56035e-07
0.0142106
-0.0142106
-0.0209505
-0.0208659
-0.0189119
-0.0164968
-0.0141327
-0.0120299
-0.0102539
-0.008795
-0.00761039
-0.00664857
-0.00586161
-0.0052098
-0.0046622
-0.00419555
-0.0037926
-0.00344064
-0.00313025
-0.00285439
-0.00260764
-0.00238583
-0.00218564
-0.00200437
-0.00183981
-0.00169008
-0.00155362
-0.00142906
-0.00131519
-0.00121099
-0.00111554
-0.00102804
-0.000947735
-0.00087399
-0.000806237
-0.000743943
-0.00068663
-0.000633879
-0.000585305
-0.00054056
-0.000499324
-0.000461304
-0.000426242
-0.000393905
-0.000364063
-0.000336515
-0.000311088
-0.000287612
-0.000265928
-0.000245897
-0.000227395
-0.000210298
-0.000194496
-0.000179894
-0.000166397
-0.000153918
-0.000142382
-0.000131717
-0.000121853
-0.000112732
-0.000104299
-9.64991e-05
-8.92842e-05
-8.26125e-05
-7.64428e-05
-7.07358e-05
-6.54562e-05
-6.05716e-05
-5.60513e-05
-5.18655e-05
-4.79858e-05
-4.43857e-05
-4.104e-05
-3.79249e-05
-3.50179e-05
-3.22977e-05
-2.97453e-05
-2.73444e-05
-2.50801e-05
-2.29403e-05
-2.09157e-05
-1.89989e-05
-1.71853e-05
-1.54719e-05
-1.38575e-05
-1.23423e-05
-1.09265e-05
-9.61151e-06
-8.39783e-06
-7.28579e-06
-6.27485e-06
-5.36343e-06
-4.54872e-06
-3.82768e-06
-3.19338e-06
-2.64562e-06
-2.1616e-06
-1.73889e-06
-1.3025e-06
3.52858e-07
3.52858e-07
0.0259716
-0.0259716
-0.03387
-0.0318859
-0.0277093
-0.0232683
-0.0192106
-0.0157606
-0.0129474
-0.0107074
-0.00894297
-0.00755453
-0.0064554
-0.00557599
-0.00486303
-0.00427675
-0.00378787
-0.00337488
-0.00302191
-0.00271714
-0.00245169
-0.00221874
-0.00201302
-0.00183037
-0.00166744
-0.00152153
-0.00139042
-0.00127225
-0.00116545
-0.0010687
-0.000980886
-0.00090103
-0.000828272
-0.000761892
-0.000701256
-0.00064579
-0.000594993
-0.00054843
-0.00050571
-0.000466484
-0.000430437
-0.000397284
-0.000366784
-0.000338708
-0.000312842
-0.000289004
-0.000267034
-0.000246772
-0.000228077
-0.000210824
-0.000194902
-0.000180199
-0.000166621
-0.000154079
-0.000142493
-0.000131786
-0.000121892
-0.000112748
-0.000104294
-9.64787e-05
-8.92541e-05
-8.25731e-05
-7.63954e-05
-7.0684e-05
-6.54026e-05
-6.0518e-05
-5.60001e-05
-5.18209e-05
-4.79537e-05
-4.43725e-05
-4.10527e-05
-3.79717e-05
-3.51073e-05
-3.24388e-05
-2.99468e-05
-2.76127e-05
-2.54203e-05
-2.33557e-05
-2.14062e-05
-1.95621e-05
-1.78155e-05
-1.61609e-05
-1.45949e-05
-1.31156e-05
-1.17226e-05
-1.04163e-05
-9.19769e-06
-8.06787e-06
-7.02754e-06
-6.07694e-06
-5.21543e-06
-4.44139e-06
-3.75203e-06
-3.14463e-06
-2.61185e-06
-2.1551e-06
-1.75231e-06
-1.39175e-06
-1.06896e-06
3.11986e-07
3.11986e-07
0.0359859
-0.0359859
-0.0367618
-0.0309383
-0.0247936
-0.0193688
-0.0148922
-0.011356
-0.00865023
-0.00662565
-0.00513158
-0.00403562
-0.0032309
-0.00263584
-0.00219043
-0.00185164
-0.00158905
-0.00138139
-0.0012138
-0.00107593
-0.000960494
-0.00086234
-0.000777778
-0.000704115
-0.000639351
-0.000581989
-0.000530878
-0.000485101
-0.000443918
-0.000406749
-0.000373113
-0.000342587
-0.000314817
-0.000289517
-0.000266432
-0.00024533
-0.000226016
-0.000208321
-0.000192094
-0.000177198
-0.000163511
-0.000150924
-0.000139348
-0.000128692
-0.000118872
-0.000109823
-0.000101486
-9.37948e-05
-8.66959e-05
-8.01455e-05
-7.41004e-05
-6.85172e-05
-6.33597e-05
-5.85965e-05
-5.41951e-05
-5.01267e-05
-4.63675e-05
-4.28927e-05
-3.96793e-05
-3.67088e-05
-3.39624e-05
-3.1422e-05
-2.90733e-05
-2.69018e-05
-2.48934e-05
-2.30357e-05
-2.13176e-05
-1.97288e-05
-1.82588e-05
-1.68975e-05
-1.56359e-05
-1.44652e-05
-1.33772e-05
-1.23639e-05
-1.14178e-05
-1.05315e-05
-9.69902e-06
-8.91489e-06
-8.17424e-06
-7.4734e-06
-6.80913e-06
-6.17933e-06
-5.58292e-06
-5.01902e-06
-4.48757e-06
-3.9888e-06
-3.52316e-06
-3.09115e-06
-2.69306e-06
-2.32916e-06
-1.99913e-06
-1.70254e-06
-1.43819e-06
-1.2055e-06
-1.0008e-06
-8.25469e-07
-6.73915e-07
-5.14626e-07
-4.55307e-07
1.18271e-07
1.18271e-07
0
0
0
0
0
0
0
0
0
0
0
0
0
0
0
0
0
0
0
0
0
0
0
0
0
0
0
0
0
0
0
0
0
0
0
0
0
0
0
0
0
0
0
0
0
0
0
0
0
0
0
0
0
0
0
0
0
0
0
0
0
0
0
0
0
0
0
0
0
0
0
0
0
0
0
0
0
0
0
0
0
0
0
0
0
0
0
0
0
0
0
0
0
0
0
0
0
0
0
0
0
0
0
0
0
0
0
0
0
0
0
0
0
0
0
0
0
0
0
0
0
0
0
0
0
0
0
0
0
0
0
0
0
0
0
0
0
0
0
0
0
0
0
0
0
0
0
0
0
0
0
0
0
0
0
0
0
0
0
0
0
0
0
0
0
0
0
0
0
0
0
0
0
0
0
0
0
0
0
0
0
0
0
0
0
0
0
0
0
0
0
0
0
0
0
0
0
0
0
0
0
0
