# vtk DataFile Version 2.0
FlowField
ASCII
DATASET STRUCTURED_GRID
DIMENSIONS 101 11 1 
POINTS 1111 double
0 0 0
0.3 0 0
0.6 0 0
0.9 0 0
1.2 0 0
1.5 0 0
1.8 0 0
2.1 0 0
2.4 0 0
2.7 0 0
3 0 0
3.3 0 0
3.6 0 0
3.9 0 0
4.2 0 0
4.5 0 0
4.8 0 0
5.1 0 0
5.4 0 0
5.7 0 0
6 0 0
6.3 0 0
6.6 0 0
6.9 0 0
7.2 0 0
7.5 0 0
7.8 0 0
8.1 0 0
8.4 0 0
8.7 0 0
9 0 0
9.3 0 0
9.6 0 0
9.9 0 0
10.2 0 0
10.5 0 0
10.8 0 0
11.1 0 0
11.4 0 0
11.7 0 0
12 0 0
12.3 0 0
12.6 0 0
12.9 0 0
13.2 0 0
13.5 0 0
13.8 0 0
14.1 0 0
14.4 0 0
14.7 0 0
15 0 0
15.3 0 0
15.6 0 0
15.9 0 0
16.2 0 0
16.5 0 0
16.8 0 0
17.1 0 0
17.4 0 0
17.7 0 0
18 0 0
18.3 0 0
18.6 0 0
18.9 0 0
19.2 0 0
19.5 0 0
19.8 0 0
20.1 0 0
20.4 0 0
20.7 0 0
21 0 0
21.3 0 0
21.6 0 0
21.9 0 0
22.2 0 0
22.5 0 0
22.8 0 0
23.1 0 0
23.4 0 0
23.7 0 0
24 0 0
24.3 0 0
24.6 0 0
24.9 0 0
25.2 0 0
25.5 0 0
25.8 0 0
26.1 0 0
26.4 0 0
26.7 0 0
27 0 0
27.3 0 0
27.6 0 0
27.9 0 0
28.2 0 0
28.5 0 0
28.8 0 0
29.1 0 0
29.4 0 0
29.7 0 0
30 0 0
0 0.1 0
0.3 0.1 0
0.6 0.1 0
0.9 0.1 0
1.2 0.1 0
1.5 0.1 0
1.8 0.1 0
2.1 0.1 0
2.4 0.1 0
2.7 0.1 0
3 0.1 0
3.3 0.1 0
3.6 0.1 0
3.9 0.1 0
4.2 0.1 0
4.5 0.1 0
4.8 0.1 0
5.1 0.1 0
5.4 0.1 0
5.7 0.1 0
6 0.1 0
6.3 0.1 0
6.6 0.1 0
6.9 0.1 0
7.2 0.1 0
7.5 0.1 0
7.8 0.1 0
8.1 0.1 0
8.4 0.1 0
8.7 0.1 0
9 0.1 0
9.3 0.1 0
9.6 0.1 0
9.9 0.1 0
10.2 0.1 0
10.5 0.1 0
10.8 0.1 0
11.1 0.1 0
11.4 0.1 0
11.7 0.1 0
12 0.1 0
12.3 0.1 0
12.6 0.1 0
12.9 0.1 0
13.2 0.1 0
13.5 0.1 0
13.8 0.1 0
14.1 0.1 0
14.4 0.1 0
14.7 0.1 0
15 0.1 0
15.3 0.1 0
15.6 0.1 0
15.9 0.1 0
16.2 0.1 0
16.5 0.1 0
16.8 0.1 0
17.1 0.1 0
17.4 0.1 0
17.7 0.1 0
18 0.1 0
18.3 0.1 0
18.6 0.1 0
18.9 0.1 0
19.2 0.1 0
19.5 0.1 0
19.8 0.1 0
20.1 0.1 0
20.4 0.1 0
20.7 0.1 0
21 0.1 0
21.3 0.1 0
21.6 0.1 0
21.9 0.1 0
22.2 0.1 0
22.5 0.1 0
22.8 0.1 0
23.1 0.1 0
23.4 0.1 0
23.7 0.1 0
24 0.1 0
24.3 0.1 0
24.6 0.1 0
24.9 0.1 0
25.2 0.1 0
25.5 0.1 0
25.8 0.1 0
26.1 0.1 0
26.4 0.1 0
26.7 0.1 0
27 0.1 0
27.3 0.1 0
27.6 0.1 0
27.9 0.1 0
28.2 0.1 0
28.5 0.1 0
28.8 0.1 0
29.1 0.1 0
29.4 0.1 0
29.7 0.1 0
30 0.1 0
0 0.2 0
0.3 0.2 0
0.6 0.2 0
0.9 0.2 0
1.2 0.2 0
1.5 0.2 0
1.8 0.2 0
2.1 0.2 0
2.4 0.2 0
2.7 0.2 0
3 0.2 0
3.3 0.2 0
3.6 0.2 0
3.9 0.2 0
4.2 0.2 0
4.5 0.2 0
4.8 0.2 0
5.1 0.2 0
5.4 0.2 0
5.7 0.2 0
6 0.2 0
6.3 0.2 0
6.6 0.2 0
6.9 0.2 0
7.2 0.2 0
7.5 0.2 0
7.8 0.2 0
8.1 0.2 0
8.4 0.2 0
8.7 0.2 0
9 0.2 0
9.3 0.2 0
9.6 0.2 0
9.9 0.2 0
10.2 0.2 0
10.5 0.2 0
10.8 0.2 0
11.1 0.2 0
11.4 0.2 0
11.7 0.2 0
12 0.2 0
12.3 0.2 0
12.6 0.2 0
12.9 0.2 0
13.2 0.2 0
13.5 0.2 0
13.8 0.2 0
14.1 0.2 0
14.4 0.2 0
14.7 0.2 0
15 0.2 0
15.3 0.2 0
15.6 0.2 0
15.9 0.2 0
16.2 0.2 0
16.5 0.2 0
16.8 0.2 0
17.1 0.2 0
17.4 0.2 0
17.7 0.2 0
18 0.2 0
18.3 0.2 0
18.6 0.2 0
18.9 0.2 0
19.2 0.2 0
19.5 0.2 0
19.8 0.2 0
20.1 0.2 0
20.4 0.2 0
20.7 0.2 0
21 0.2 0
21.3 0.2 0
21.6 0.2 0
21.9 0.2 0
22.2 0.2 0
22.5 0.2 0
22.8 0.2 0
23.1 0.2 0
23.4 0.2 0
23.7 0.2 0
24 0.2 0
24.3 0.2 0
24.6 0.2 0
24.9 0.2 0
25.2 0.2 0
25.5 0.2 0
25.8 0.2 0
26.1 0.2 0
26.4 0.2 0
26.7 0.2 0
27 0.2 0
27.3 0.2 0
27.6 0.2 0
27.9 0.2 0
28.2 0.2 0
28.5 0.2 0
28.8 0.2 0
29.1 0.2 0
29.4 0.2 0
29.7 0.2 0
30 0.2 0
0 0.3 0
0.3 0.3 0
0.6 0.3 0
0.9 0.3 0
1.2 0.3 0
1.5 0.3 0
1.8 0.3 0
2.1 0.3 0
2.4 0.3 0
2.7 0.3 0
3 0.3 0
3.3 0.3 0
3.6 0.3 0
3.9 0.3 0
4.2 0.3 0
4.5 0.3 0
4.8 0.3 0
5.1 0.3 0
5.4 0.3 0
5.7 0.3 0
6 0.3 0
6.3 0.3 0
6.6 0.3 0
6.9 0.3 0
7.2 0.3 0
7.5 0.3 0
7.8 0.3 0
8.1 0.3 0
8.4 0.3 0
8.7 0.3 0
9 0.3 0
9.3 0.3 0
9.6 0.3 0
9.9 0.3 0
10.2 0.3 0
10.5 0.3 0
10.8 0.3 0
11.1 0.3 0
11.4 0.3 0
11.7 0.3 0
12 0.3 0
12.3 0.3 0
12.6 0.3 0
12.9 0.3 0
13.2 0.3 0
13.5 0.3 0
13.8 0.3 0
14.1 0.3 0
14.4 0.3 0
14.7 0.3 0
15 0.3 0
15.3 0.3 0
15.6 0.3 0
15.9 0.3 0
16.2 0.3 0
16.5 0.3 0
16.8 0.3 0
17.1 0.3 0
17.4 0.3 0
17.7 0.3 0
18 0.3 0
18.3 0.3 0
18.6 0.3 0
18.9 0.3 0
19.2 0.3 0
19.5 0.3 0
19.8 0.3 0
20.1 0.3 0
20.4 0.3 0
20.7 0.3 0
21 0.3 0
21.3 0.3 0
21.6 0.3 0
21.9 0.3 0
22.2 0.3 0
22.5 0.3 0
22.8 0.3 0
23.1 0.3 0
23.4 0.3 0
23.7 0.3 0
24 0.3 0
24.3 0.3 0
24.6 0.3 0
24.9 0.3 0
25.2 0.3 0
25.5 0.3 0
25.8 0.3 0
26.1 0.3 0
26.4 0.3 0
26.7 0.3 0
27 0.3 0
27.3 0.3 0
27.6 0.3 0
27.9 0.3 0
28.2 0.3 0
28.5 0.3 0
28.8 0.3 0
29.1 0.3 0
29.4 0.3 0
29.7 0.3 0
30 0.3 0
0 0.4 0
0.3 0.4 0
0.6 0.4 0
0.9 0.4 0
1.2 0.4 0
1.5 0.4 0
1.8 0.4 0
2.1 0.4 0
2.4 0.4 0
2.7 0.4 0
3 0.4 0
3.3 0.4 0
3.6 0.4 0
3.9 0.4 0
4.2 0.4 0
4.5 0.4 0
4.8 0.4 0
5.1 0.4 0
5.4 0.4 0
5.7 0.4 0
6 0.4 0
6.3 0.4 0
6.6 0.4 0
6.9 0.4 0
7.2 0.4 0
7.5 0.4 0
7.8 0.4 0
8.1 0.4 0
8.4 0.4 0
8.7 0.4 0
9 0.4 0
9.3 0.4 0
9.6 0.4 0
9.9 0.4 0
10.2 0.4 0
10.5 0.4 0
10.8 0.4 0
11.1 0.4 0
11.4 0.4 0
11.7 0.4 0
12 0.4 0
12.3 0.4 0
12.6 0.4 0
12.9 0.4 0
13.2 0.4 0
13.5 0.4 0
13.8 0.4 0
14.1 0.4 0
14.4 0.4 0
14.7 0.4 0
15 0.4 0
15.3 0.4 0
15.6 0.4 0
15.9 0.4 0
16.2 0.4 0
16.5 0.4 0
16.8 0.4 0
17.1 0.4 0
17.4 0.4 0
17.7 0.4 0
18 0.4 0
18.3 0.4 0
18.6 0.4 0
18.9 0.4 0
19.2 0.4 0
19.5 0.4 0
19.8 0.4 0
20.1 0.4 0
20.4 0.4 0
20.7 0.4 0
21 0.4 0
21.3 0.4 0
21.6 0.4 0
21.9 0.4 0
22.2 0.4 0
22.5 0.4 0
22.8 0.4 0
23.1 0.4 0
23.4 0.4 0
23.7 0.4 0
24 0.4 0
24.3 0.4 0
24.6 0.4 0
24.9 0.4 0
25.2 0.4 0
25.5 0.4 0
25.8 0.4 0
26.1 0.4 0
26.4 0.4 0
26.7 0.4 0
27 0.4 0
27.3 0.4 0
27.6 0.4 0
27.9 0.4 0
28.2 0.4 0
28.5 0.4 0
28.8 0.4 0
29.1 0.4 0
29.4 0.4 0
29.7 0.4 0
30 0.4 0
0 0.5 0
0.3 0.5 0
0.6 0.5 0
0.9 0.5 0
1.2 0.5 0
1.5 0.5 0
1.8 0.5 0
2.1 0.5 0
2.4 0.5 0
2.7 0.5 0
3 0.5 0
3.3 0.5 0
3.6 0.5 0
3.9 0.5 0
4.2 0.5 0
4.5 0.5 0
4.8 0.5 0
5.1 0.5 0
5.4 0.5 0
5.7 0.5 0
6 0.5 0
6.3 0.5 0
6.6 0.5 0
6.9 0.5 0
7.2 0.5 0
7.5 0.5 0
7.8 0.5 0
8.1 0.5 0
8.4 0.5 0
8.7 0.5 0
9 0.5 0
9.3 0.5 0
9.6 0.5 0
9.9 0.5 0
10.2 0.5 0
10.5 0.5 0
10.8 0.5 0
11.1 0.5 0
11.4 0.5 0
11.7 0.5 0
12 0.5 0
12.3 0.5 0
12.6 0.5 0
12.9 0.5 0
13.2 0.5 0
13.5 0.5 0
13.8 0.5 0
14.1 0.5 0
14.4 0.5 0
14.7 0.5 0
15 0.5 0
15.3 0.5 0
15.6 0.5 0
15.9 0.5 0
16.2 0.5 0
16.5 0.5 0
16.8 0.5 0
17.1 0.5 0
17.4 0.5 0
17.7 0.5 0
18 0.5 0
18.3 0.5 0
18.6 0.5 0
18.9 0.5 0
19.2 0.5 0
19.5 0.5 0
19.8 0.5 0
20.1 0.5 0
20.4 0.5 0
20.7 0.5 0
21 0.5 0
21.3 0.5 0
21.6 0.5 0
21.9 0.5 0
22.2 0.5 0
22.5 0.5 0
22.8 0.5 0
23.1 0.5 0
23.4 0.5 0
23.7 0.5 0
24 0.5 0
24.3 0.5 0
24.6 0.5 0
24.9 0.5 0
25.2 0.5 0
25.5 0.5 0
25.8 0.5 0
26.1 0.5 0
26.4 0.5 0
26.7 0.5 0
27 0.5 0
27.3 0.5 0
27.6 0.5 0
27.9 0.5 0
28.2 0.5 0
28.5 0.5 0
28.8 0.5 0
29.1 0.5 0
29.4 0.5 0
29.7 0.5 0
30 0.5 0
0 0.6 0
0.3 0.6 0
0.6 0.6 0
0.9 0.6 0
1.2 0.6 0
1.5 0.6 0
1.8 0.6 0
2.1 0.6 0
2.4 0.6 0
2.7 0.6 0
3 0.6 0
3.3 0.6 0
3.6 0.6 0
3.9 0.6 0
4.2 0.6 0
4.5 0.6 0
4.8 0.6 0
5.1 0.6 0
5.4 0.6 0
5.7 0.6 0
6 0.6 0
6.3 0.6 0
6.6 0.6 0
6.9 0.6 0
7.2 0.6 0
7.5 0.6 0
7.8 0.6 0
8.1 0.6 0
8.4 0.6 0
8.7 0.6 0
9 0.6 0
9.3 0.6 0
9.6 0.6 0
9.9 0.6 0
10.2 0.6 0
10.5 0.6 0
10.8 0.6 0
11.1 0.6 0
11.4 0.6 0
11.7 0.6 0
12 0.6 0
12.3 0.6 0
12.6 0.6 0
12.9 0.6 0
13.2 0.6 0
13.5 0.6 0
13.8 0.6 0
14.1 0.6 0
14.4 0.6 0
14.7 0.6 0
15 0.6 0
15.3 0.6 0
15.6 0.6 0
15.9 0.6 0
16.2 0.6 0
16.5 0.6 0
16.8 0.6 0
17.1 0.6 0
17.4 0.6 0
17.7 0.6 0
18 0.6 0
18.3 0.6 0
18.6 0.6 0
18.9 0.6 0
19.2 0.6 0
19.5 0.6 0
19.8 0.6 0
20.1 0.6 0
20.4 0.6 0
20.7 0.6 0
21 0.6 0
21.3 0.6 0
21.6 0.6 0
21.9 0.6 0
22.2 0.6 0
22.5 0.6 0
22.8 0.6 0
23.1 0.6 0
23.4 0.6 0
23.7 0.6 0
24 0.6 0
24.3 0.6 0
24.6 0.6 0
24.9 0.6 0
25.2 0.6 0
25.5 0.6 0
25.8 0.6 0
26.1 0.6 0
26.4 0.6 0
26.7 0.6 0
27 0.6 0
27.3 0.6 0
27.6 0.6 0
27.9 0.6 0
28.2 0.6 0
28.5 0.6 0
28.8 0.6 0
29.1 0.6 0
29.4 0.6 0
29.7 0.6 0
30 0.6 0
0 0.7 0
0.3 0.7 0
0.6 0.7 0
0.9 0.7 0
1.2 0.7 0
1.5 0.7 0
1.8 0.7 0
2.1 0.7 0
2.4 0.7 0
2.7 0.7 0
3 0.7 0
3.3 0.7 0
3.6 0.7 0
3.9 0.7 0
4.2 0.7 0
4.5 0.7 0
4.8 0.7 0
5.1 0.7 0
5.4 0.7 0
5.7 0.7 0
6 0.7 0
6.3 0.7 0
6.6 0.7 0
6.9 0.7 0
7.2 0.7 0
7.5 0.7 0
7.8 0.7 0
8.1 0.7 0
8.4 0.7 0
8.7 0.7 0
9 0.7 0
9.3 0.7 0
9.6 0.7 0
9.9 0.7 0
10.2 0.7 0
10.5 0.7 0
10.8 0.7 0
11.1 0.7 0
11.4 0.7 0
11.7 0.7 0
12 0.7 0
12.3 0.7 0
12.6 0.7 0
12.9 0.7 0
13.2 0.7 0
13.5 0.7 0
13.8 0.7 0
14.1 0.7 0
14.4 0.7 0
14.7 0.7 0
15 0.7 0
15.3 0.7 0
15.6 0.7 0
15.9 0.7 0
16.2 0.7 0
16.5 0.7 0
16.8 0.7 0
17.1 0.7 0
17.4 0.7 0
17.7 0.7 0
18 0.7 0
18.3 0.7 0
18.6 0.7 0
18.9 0.7 0
19.2 0.7 0
19.5 0.7 0
19.8 0.7 0
20.1 0.7 0
20.4 0.7 0
20.7 0.7 0
21 0.7 0
21.3 0.7 0
21.6 0.7 0
21.9 0.7 0
22.2 0.7 0
22.5 0.7 0
22.8 0.7 0
23.1 0.7 0
23.4 0.7 0
23.7 0.7 0
24 0.7 0
24.3 0.7 0
24.6 0.7 0
24.9 0.7 0
25.2 0.7 0
25.5 0.7 0
25.8 0.7 0
26.1 0.7 0
26.4 0.7 0
26.7 0.7 0
27 0.7 0
27.3 0.7 0
27.6 0.7 0
27.9 0.7 0
28.2 0.7 0
28.5 0.7 0
28.8 0.7 0
29.1 0.7 0
29.4 0.7 0
29.7 0.7 0
30 0.7 0
0 0.8 0
0.3 0.8 0
0.6 0.8 0
0.9 0.8 0
1.2 0.8 0
1.5 0.8 0
1.8 0.8 0
2.1 0.8 0
2.4 0.8 0
2.7 0.8 0
3 0.8 0
3.3 0.8 0
3.6 0.8 0
3.9 0.8 0
4.2 0.8 0
4.5 0.8 0
4.8 0.8 0
5.1 0.8 0
5.4 0.8 0
5.7 0.8 0
6 0.8 0
6.3 0.8 0
6.6 0.8 0
6.9 0.8 0
7.2 0.8 0
7.5 0.8 0
7.8 0.8 0
8.1 0.8 0
8.4 0.8 0
8.7 0.8 0
9 0.8 0
9.3 0.8 0
9.6 0.8 0
9.9 0.8 0
10.2 0.8 0
10.5 0.8 0
10.8 0.8 0
11.1 0.8 0
11.4 0.8 0
11.7 0.8 0
12 0.8 0
12.3 0.8 0
12.6 0.8 0
12.9 0.8 0
13.2 0.8 0
13.5 0.8 0
13.8 0.8 0
14.1 0.8 0
14.4 0.8 0
14.7 0.8 0
15 0.8 0
15.3 0.8 0
15.6 0.8 0
15.9 0.8 0
16.2 0.8 0
16.5 0.8 0
16.8 0.8 0
17.1 0.8 0
17.4 0.8 0
17.7 0.8 0
18 0.8 0
18.3 0.8 0
18.6 0.8 0
18.9 0.8 0
19.2 0.8 0
19.5 0.8 0
19.8 0.8 0
20.1 0.8 0
20.4 0.8 0
20.7 0.8 0
21 0.8 0
21.3 0.8 0
21.6 0.8 0
21.9 0.8 0
22.2 0.8 0
22.5 0.8 0
22.8 0.8 0
23.1 0.8 0
23.4 0.8 0
23.7 0.8 0
24 0.8 0
24.3 0.8 0
24.6 0.8 0
24.9 0.8 0
25.2 0.8 0
25.5 0.8 0
25.8 0.8 0
26.1 0.8 0
26.4 0.8 0
26.7 0.8 0
27 0.8 0
27.3 0.8 0
27.6 0.8 0
27.9 0.8 0
28.2 0.8 0
28.5 0.8 0
28.8 0.8 0
29.1 0.8 0
29.4 0.8 0
29.7 0.8 0
30 0.8 0
0 0.9 0
0.3 0.9 0
0.6 0.9 0
0.9 0.9 0
1.2 0.9 0
1.5 0.9 0
1.8 0.9 0
2.1 0.9 0
2.4 0.9 0
2.7 0.9 0
3 0.9 0
3.3 0.9 0
3.6 0.9 0
3.9 0.9 0
4.2 0.9 0
4.5 0.9 0
4.8 0.9 0
5.1 0.9 0
5.4 0.9 0
5.7 0.9 0
6 0.9 0
6.3 0.9 0
6.6 0.9 0
6.9 0.9 0
7.2 0.9 0
7.5 0.9 0
7.8 0.9 0
8.1 0.9 0
8.4 0.9 0
8.7 0.9 0
9 0.9 0
9.3 0.9 0
9.6 0.9 0
9.9 0.9 0
10.2 0.9 0
10.5 0.9 0
10.8 0.9 0
11.1 0.9 0
11.4 0.9 0
11.7 0.9 0
12 0.9 0
12.3 0.9 0
12.6 0.9 0
12.9 0.9 0
13.2 0.9 0
13.5 0.9 0
13.8 0.9 0
14.1 0.9 0
14.4 0.9 0
14.7 0.9 0
15 0.9 0
15.3 0.9 0
15.6 0.9 0
15.9 0.9 0
16.2 0.9 0
16.5 0.9 0
16.8 0.9 0
17.1 0.9 0
17.4 0.9 0
17.7 0.9 0
18 0.9 0
18.3 0.9 0
18.6 0.9 0
18.9 0.9 0
19.2 0.9 0
19.5 0.9 0
19.8 0.9 0
20.1 0.9 0
20.4 0.9 0
20.7 0.9 0
21 0.9 0
21.3 0.9 0
21.6 0.9 0
21.9 0.9 0
22.2 0.9 0
22.5 0.9 0
22.8 0.9 0
23.1 0.9 0
23.4 0.9 0
23.7 0.9 0
24 0.9 0
24.3 0.9 0
24.6 0.9 0
24.9 0.9 0
25.2 0.9 0
25.5 0.9 0
25.8 0.9 0
26.1 0.9 0
26.4 0.9 0
26.7 0.9 0
27 0.9 0
27.3 0.9 0
27.6 0.9 0
27.9 0.9 0
28.2 0.9 0
28.5 0.9 0
28.8 0.9 0
29.1 0.9 0
29.4 0.9 0
29.7 0.9 0
30 0.9 0
0 1 0
0.3 1 0
0.6 1 0
0.9 1 0
1.2 1 0
1.5 1 0
1.8 1 0
2.1 1 0
2.4 1 0
2.7 1 0
3 1 0
3.3 1 0
3.6 1 0
3.9 1 0
4.2 1 0
4.5 1 0
4.8 1 0
5.1 1 0
5.4 1 0
5.7 1 0
6 1 0
6.3 1 0
6.6 1 0
6.9 1 0
7.2 1 0
7.5 1 0
7.8 1 0
8.1 1 0
8.4 1 0
8.7 1 0
9 1 0
9.3 1 0
9.6 1 0
9.9 1 0
10.2 1 0
10.5 1 0
10.8 1 0
11.1 1 0
11.4 1 0
11.7 1 0
12 1 0
12.3 1 0
12.6 1 0
12.9 1 0
13.2 1 0
13.5 1 0
13.8 1 0
14.1 1 0
14.4 1 0
14.7 1 0
15 1 0
15.3 1 0
15.6 1 0
15.9 1 0
16.2 1 0
16.5 1 0
16.8 1 0
17.1 1 0
17.4 1 0
17.7 1 0
18 1 0
18.3 1 0
18.6 1 0
18.9 1 0
19.2 1 0
19.5 1 0
19.8 1 0
20.1 1 0
20.4 1 0
20.7 1 0
21 1 0
21.3 1 0
21.6 1 0
21.9 1 0
22.2 1 0
22.5 1 0
22.8 1 0
23.1 1 0
23.4 1 0
23.7 1 0
24 1 0
24.3 1 0
24.6 1 0
24.9 1 0
25.2 1 0
25.5 1 0
25.8 1 0
26.1 1 0
26.4 1 0
26.7 1 0
27 1 0
27.3 1 0
27.6 1 0
27.9 1 0
28.2 1 0
28.5 1 0
28.8 1 0
29.1 1 0
29.4 1 0
29.7 1 0
30 1 0

POINT_DATA 1111

SCALARS phi double
LOOKUP_TABLE default
1
1
1
0.999994
0.999972
0.999915
0.999796
0.999582
0.99924
0.998736
0.998042
0.997136
0.996001
0.994626
0.993006
0.991141
0.989033
0.986688
0.984113
0.981321
0.978323
0.975135
0.971773
0.968238
0.964514
0.960548
0.95625
0.951491
0.946115
0.939955
0.932852
0.924663
0.915278
0.90462
0.892651
0.879364
0.864784
0.848963
0.831973
0.813904
0.794856
0.77494
0.754271
0.732966
0.711141
0.688909
0.66638
0.643655
0.620832
0.597998
0.575235
0.552616
0.530205
0.50806
0.486233
0.464766
0.443696
0.423055
0.402868
0.383156
0.363937
0.345221
0.327018
0.309334
0.292172
0.275534
0.259418
0.243822
0.228744
0.214179
0.200124
0.186572
0.173521
0.160967
0.148906
0.137336
0.126257
0.115667
0.105569
0.0959647
0.0868569
0.0782494
0.0701461
0.0625505
0.0554651
0.0488908
0.0428263
0.0372676
0.0322072
0.027634
0.023533
0.0198856
0.0166691
0.0138577
0.0114233
0.00933431
0.0075632
0.0060596
0.00486502
0.00364527
0.00364527
1
1
1
0.999994
0.999972
0.999915
0.999796
0.999582
0.99924
0.998736
0.998042
0.997136
0.996001
0.994626
0.993006
0.991141
0.989033
0.986688
0.984113
0.981321
0.978323
0.975135
0.971773
0.968238
0.964514
0.960548
0.95625
0.951491
0.946115
0.939955
0.932852
0.924663
0.915278
0.90462
0.892651
0.879364
0.864784
0.848963
0.831973
0.813904
0.794856
0.77494
0.754271
0.732966
0.711141
0.688909
0.66638
0.643655
0.620832
0.597998
0.575235
0.552616
0.530205
0.50806
0.486233
0.464766
0.443696
0.423055
0.402868
0.383156
0.363937
0.345221
0.327018
0.309334
0.292172
0.275534
0.259418
0.243822
0.228744
0.214179
0.200124
0.186572
0.173521
0.160967
0.148906
0.137336
0.126257
0.115667
0.105569
0.0959647
0.0868569
0.0782494
0.0701461
0.0625505
0.0554651
0.0488908
0.0428263
0.0372676
0.0322072
0.027634
0.023533
0.0198856
0.0166691
0.0138577
0.0114233
0.00933431
0.0075632
0.0060596
0.00486502
0.00364527
0.00364527
0.999997
1
0.999982
0.999903
0.99973
0.999422
0.998942
0.998256
0.99734
0.996174
0.994748
0.993059
0.991109
0.988905
0.986455
0.983772
0.98087
0.977762
0.974464
0.970989
0.967355
0.963574
0.959663
0.955635
0.951499
0.947254
0.942884
0.938355
0.933614
0.928587
0.923186
0.917316
0.910876
0.903772
0.895921
0.887252
0.877711
0.867263
0.85589
0.843594
0.83039
0.816311
0.8014
0.785711
0.769307
0.752255
0.734628
0.716501
0.697949
0.679047
0.659868
0.640482
0.620957
0.601354
0.581734
0.562151
0.542653
0.523288
0.504094
0.485108
0.466362
0.447883
0.429696
0.41182
0.394271
0.377063
0.360206
0.343708
0.327572
0.311801
0.296395
0.281352
0.266668
0.252336
0.23835
0.224703
0.211386
0.198392
0.185715
0.173348
0.161292
0.149547
0.13812
0.127023
0.116273
0.105891
0.0959044
0.0863436
0.0772408
0.0686286
0.0605383
0.0529972
0.0460273
0.0396431
0.0338521
0.0286473
0.0240351
0.0199241
0.0165632
0.0128466
0.0128466
1
0.999999
0.99946
0.998318
0.996569
0.994236
0.991359
0.987986
0.984174
0.979985
0.975479
0.970715
0.965744
0.960613
0.955362
0.950025
0.944629
0.9392
0.933755
0.928313
0.922885
0.917483
0.912115
0.906789
0.90151
0.896283
0.891105
0.885974
0.880876
0.875795
0.870703
0.865566
0.860341
0.854981
0.849434
0.843646
0.837564
0.831136
0.824315
0.817059
0.809333
0.801108
0.792363
0.783086
0.773272
0.762922
0.752045
0.740657
0.728778
0.716432
0.703648
0.690459
0.676898
0.663
0.648803
0.634343
0.619657
0.604781
0.58975
0.574598
0.559357
0.544058
0.52873
0.513398
0.498087
0.482819
0.467613
0.452487
0.437454
0.422526
0.407713
0.393019
0.378448
0.363999
0.349668
0.335448
0.321328
0.307292
0.293325
0.279406
0.265518
0.251642
0.237765
0.223878
0.209985
0.196097
0.182243
0.168463
0.154814
0.141367
0.128203
0.115413
0.10309
0.0913266
0.0802121
0.0698086
0.0602306
0.0513192
0.0438542
0.0350542
0.0350542
1.00152
0.998478
0.989845
0.978523
0.966041
0.953192
0.940393
0.927875
0.915766
0.904141
0.893035
0.882463
0.87242
0.862891
0.853856
0.845287
0.837157
0.829439
0.822103
0.815125
0.808478
0.802139
0.796087
0.790301
0.784762
0.779454
0.77436
0.769466
0.764755
0.760213
0.755823
0.751566
0.747424
0.743374
0.739391
0.735448
0.731516
0.727565
0.723563
0.719478
0.715278
0.710932
0.70641
0.701683
0.696726
0.691516
0.686032
0.680257
0.674178
0.667782
0.661064
0.654018
0.646643
0.638939
0.630911
0.622564
0.613906
0.604946
0.595696
0.586167
0.576372
0.566325
0.556039
0.54553
0.534811
0.523897
0.512801
0.501536
0.490114
0.478547
0.466843
0.455012
0.443059
0.430987
0.418795
0.40648
0.394034
0.381442
0.368685
0.355738
0.342572
0.329154
0.315448
0.301423
0.287051
0.272318
0.257223
0.241785
0.226045
0.210073
0.193961
0.177825
0.161801
0.146038
0.130698
0.115909
0.101916
0.0884799
0.0770341
0.062907
0.062907
1.04956
0.950436
0.872951
0.815234
0.771993
0.739004
0.713323
0.692935
0.676455
0.662919
0.651641
0.642125
0.634005
0.627008
0.620923
0.61559
0.61088
0.606694
0.60295
0.599584
0.596543
0.593782
0.591266
0.588964
0.586851
0.584905
0.583109
0.581447
0.579905
0.578472
0.577135
0.575886
0.574714
0.57361
0.572563
0.571563
0.570599
0.569658
0.568726
0.567791
0.566835
0.565844
0.5648
0.563686
0.562483
0.561173
0.559737
0.558159
0.556419
0.5545
0.552386
0.550061
0.54751
0.544719
0.541675
0.538367
0.534784
0.530918
0.526761
0.522306
0.517549
0.512484
0.507111
0.501425
0.495428
0.489119
0.4825
0.475572
0.468338
0.460801
0.452963
0.444826
0.436392
0.427662
0.418634
0.409301
0.399657
0.389686
0.37937
0.368682
0.35759
0.346058
0.334046
0.321511
0.308418
0.294739
0.28046
0.26559
0.25016
0.234232
0.217898
0.20128
0.184526
0.167805
0.151307
0.135188
0.119751
0.104726
0.0918372
0.0756232
0.0756232
-0.0440411
0.0440411
0.104658
0.147826
0.179978
0.204969
0.22512
0.241852
0.256065
0.268346
0.279103
0.288632
0.297153
0.30484
0.31183
0.318232
0.324136
0.329615
0.334729
0.339527
0.344051
0.348335
0.352408
0.356294
0.360014
0.363586
0.367024
0.370342
0.373551
0.376661
0.379679
0.382612
0.385468
0.388251
0.390964
0.39361
0.396192
0.398708
0.40116
0.403544
0.405857
0.408094
0.410249
0.412314
0.414281
0.416138
0.417875
0.419478
0.420935
0.422231
0.42335
0.424277
0.424996
0.425491
0.425746
0.425745
0.425472
0.424912
0.424052
0.422876
0.421373
0.419532
0.417341
0.414793
0.411878
0.408591
0.404926
0.400879
0.396447
0.391628
0.386421
0.380823
0.374833
0.368449
0.361667
0.35448
0.346878
0.338848
0.330371
0.321427
0.311988
0.302025
0.291509
0.280414
0.268721
0.256421
0.243523
0.230057
0.216076
0.201659
0.186912
0.171966
0.15697
0.142086
0.127493
0.113332
0.099861
0.08686
0.0757521
0.0619676
0.0619676
-0.00135393
0.00135393
0.00757106
0.0154113
0.0241244
0.0333479
0.0428736
0.0525556
0.0622788
0.0719501
0.0814969
0.0908662
0.100022
0.108944
0.11762
0.126049
0.134233
0.142179
0.149896
0.157395
0.164687
0.171781
0.178688
0.185419
0.191982
0.198387
0.204641
0.210752
0.216726
0.22257
0.228289
0.233887
0.239368
0.244736
0.249992
0.255137
0.260172
0.265094
0.269902
0.274591
0.279155
0.283588
0.287881
0.292026
0.29601
0.299821
0.303448
0.306874
0.310085
0.313066
0.315801
0.318272
0.320464
0.322361
0.323945
0.325203
0.326119
0.326679
0.32687
0.326682
0.326104
0.325127
0.323744
0.321949
0.319739
0.31711
0.314063
0.310597
0.306714
0.302416
0.297706
0.292588
0.287063
0.281135
0.274804
0.26807
0.260931
0.253383
0.245422
0.237042
0.228238
0.219008
0.209355
0.19929
0.188834
0.178018
0.166893
0.15552
0.143979
0.132364
0.12078
0.109341
0.0981641
0.087363
0.0770501
0.067308
0.0582697
0.0497988
0.0426712
0.0342031
0.0342031
-1.12304e-05
1.12304e-05
0.000371135
0.00113545
0.00236809
0.00411786
0.00641416
0.00926464
0.0126562
0.0165593
0.020933
0.0257304
0.0309028
0.036402
0.0421822
0.0482009
0.0544193
0.0608023
0.0673182
0.0739389
0.080639
0.087396
0.0941902
0.101004
0.107821
0.114629
0.121414
0.128167
0.134877
0.141536
0.148134
0.154663
0.161115
0.167479
0.173746
0.179903
0.185939
0.191839
0.197588
0.203169
0.208567
0.213761
0.218734
0.223466
0.227938
0.232129
0.23602
0.239593
0.242828
0.245709
0.248218
0.250341
0.252063
0.253373
0.254258
0.254712
0.254727
0.254297
0.25342
0.252095
0.250324
0.248109
0.245455
0.242371
0.238865
0.234948
0.230631
0.225929
0.220855
0.215426
0.209657
0.203566
0.197169
0.190483
0.183526
0.176316
0.168872
0.161213
0.15336
0.145338
0.137174
0.128897
0.120545
0.112156
0.103777
0.0954586
0.0872546
0.0792227
0.0714216
0.0639092
0.0567404
0.0499651
0.0436263
0.0377575
0.0323838
0.0275137
0.0231672
0.0192669
0.016064
0.0124962
0.0124962
1.70138e-06
-1.70138e-06
1.49765e-05
9.33843e-05
0.000299335
0.000718214
0.00144362
0.00256259
0.00414307
0.0062276
0.00883329
0.0119559
0.0155752
0.0196605
0.0241747
0.0290772
0.0343266
0.0398817
0.0457028
0.0517522
0.0579944
0.0643967
0.0709289
0.0775636
0.084276
0.0910434
0.0978455
0.104663
0.111478
0.118273
0.125029
0.131729
0.138352
0.144877
0.151283
0.157545
0.163639
0.169539
0.175217
0.180649
0.185806
0.190662
0.195192
0.199371
0.203175
0.206583
0.209576
0.212134
0.214243
0.215888
0.21706
0.21775
0.217951
0.217661
0.21688
0.215609
0.213853
0.21162
0.20892
0.205764
0.202167
0.198145
0.193719
0.188908
0.183734
0.178223
0.172399
0.16629
0.159924
0.153331
0.146541
0.139587
0.132502
0.125318
0.118071
0.110796
0.10353
0.0963097
0.0891719
0.0821542
0.0752938
0.0686273
0.0621897
0.0560143
0.0501316
0.0445687
0.0393486
0.0344896
0.0300046
0.0259008
0.0221798
0.0188373
0.0158635
0.0132437
0.0109592
0.00898632
0.00730444
0.00586916
0.00472457
0.0035493
0.0035493
1.70138e-06
-1.70138e-06
1.49765e-05
9.33843e-05
0.000299335
0.000718214
0.00144362
0.00256259
0.00414307
0.0062276
0.00883329
0.0119559
0.0155752
0.0196605
0.0241747
0.0290772
0.0343266
0.0398817
0.0457028
0.0517522
0.0579944
0.0643967
0.0709289
0.0775636
0.084276
0.0910434
0.0978455
0.104663
0.111478
0.118273
0.125029
0.131729
0.138352
0.144877
0.151283
0.157545
0.163639
0.169539
0.175217
0.180649
0.185806
0.190662
0.195192
0.199371
0.203175
0.206583
0.209576
0.212134
0.214243
0.215888
0.21706
0.21775
0.217951
0.217661
0.21688
0.215609
0.213853
0.21162
0.20892
0.205764
0.202167
0.198145
0.193719
0.188908
0.183734
0.178223
0.172399
0.16629
0.159924
0.153331
0.146541
0.139587
0.132502
0.125318
0.118071
0.110796
0.10353
0.0963097
0.0891719
0.0821542
0.0752938
0.0686273
0.0621897
0.0560143
0.0501316
0.0445687
0.0393486
0.0344896
0.0300046
0.0259008
0.0221798
0.0188373
0.0158635
0.0132437
0.0109592
0.00898632
0.00730444
0.00586916
0.00472457
0.0035493
0.0035493
