# vtk DataFile Version 2.0
FlowField
ASCII
DATASET STRUCTURED_GRID
DIMENSIONS 102 13 1 
POINTS 1326 double
0 0 0
0.3 0 0
0.6 0 0
0.9 0 0
1.2 0 0
1.5 0 0
1.8 0 0
2.1 0 0
2.4 0 0
2.7 0 0
3 0 0
3.3 0 0
3.6 0 0
3.9 0 0
4.2 0 0
4.5 0 0
4.8 0 0
5.1 0 0
5.4 0 0
5.7 0 0
6 0 0
6.3 0 0
6.6 0 0
6.9 0 0
7.2 0 0
7.5 0 0
7.8 0 0
8.1 0 0
8.4 0 0
8.7 0 0
9 0 0
9.3 0 0
9.6 0 0
9.9 0 0
10.2 0 0
10.5 0 0
10.8 0 0
11.1 0 0
11.4 0 0
11.7 0 0
12 0 0
12.3 0 0
12.6 0 0
12.9 0 0
13.2 0 0
13.5 0 0
13.8 0 0
14.1 0 0
14.4 0 0
14.7 0 0
15 0 0
15.3 0 0
15.6 0 0
15.9 0 0
16.2 0 0
16.5 0 0
16.8 0 0
17.1 0 0
17.4 0 0
17.7 0 0
18 0 0
18.3 0 0
18.6 0 0
18.9 0 0
19.2 0 0
19.5 0 0
19.8 0 0
20.1 0 0
20.4 0 0
20.7 0 0
21 0 0
21.3 0 0
21.6 0 0
21.9 0 0
22.2 0 0
22.5 0 0
22.8 0 0
23.1 0 0
23.4 0 0
23.7 0 0
24 0 0
24.3 0 0
24.6 0 0
24.9 0 0
25.2 0 0
25.5 0 0
25.8 0 0
26.1 0 0
26.4 0 0
26.7 0 0
27 0 0
27.3 0 0
27.6 0 0
27.9 0 0
28.2 0 0
28.5 0 0
28.8 0 0
29.1 0 0
29.4 0 0
29.7 0 0
30 0 0
30.3 0 0
0 0.1 0
0.3 0.1 0
0.6 0.1 0
0.9 0.1 0
1.2 0.1 0
1.5 0.1 0
1.8 0.1 0
2.1 0.1 0
2.4 0.1 0
2.7 0.1 0
3 0.1 0
3.3 0.1 0
3.6 0.1 0
3.9 0.1 0
4.2 0.1 0
4.5 0.1 0
4.8 0.1 0
5.1 0.1 0
5.4 0.1 0
5.7 0.1 0
6 0.1 0
6.3 0.1 0
6.6 0.1 0
6.9 0.1 0
7.2 0.1 0
7.5 0.1 0
7.8 0.1 0
8.1 0.1 0
8.4 0.1 0
8.7 0.1 0
9 0.1 0
9.3 0.1 0
9.6 0.1 0
9.9 0.1 0
10.2 0.1 0
10.5 0.1 0
10.8 0.1 0
11.1 0.1 0
11.4 0.1 0
11.7 0.1 0
12 0.1 0
12.3 0.1 0
12.6 0.1 0
12.9 0.1 0
13.2 0.1 0
13.5 0.1 0
13.8 0.1 0
14.1 0.1 0
14.4 0.1 0
14.7 0.1 0
15 0.1 0
15.3 0.1 0
15.6 0.1 0
15.9 0.1 0
16.2 0.1 0
16.5 0.1 0
16.8 0.1 0
17.1 0.1 0
17.4 0.1 0
17.7 0.1 0
18 0.1 0
18.3 0.1 0
18.6 0.1 0
18.9 0.1 0
19.2 0.1 0
19.5 0.1 0
19.8 0.1 0
20.1 0.1 0
20.4 0.1 0
20.7 0.1 0
21 0.1 0
21.3 0.1 0
21.6 0.1 0
21.9 0.1 0
22.2 0.1 0
22.5 0.1 0
22.8 0.1 0
23.1 0.1 0
23.4 0.1 0
23.7 0.1 0
24 0.1 0
24.3 0.1 0
24.6 0.1 0
24.9 0.1 0
25.2 0.1 0
25.5 0.1 0
25.8 0.1 0
26.1 0.1 0
26.4 0.1 0
26.7 0.1 0
27 0.1 0
27.3 0.1 0
27.6 0.1 0
27.9 0.1 0
28.2 0.1 0
28.5 0.1 0
28.8 0.1 0
29.1 0.1 0
29.4 0.1 0
29.7 0.1 0
30 0.1 0
30.3 0.1 0
0 0.2 0
0.3 0.2 0
0.6 0.2 0
0.9 0.2 0
1.2 0.2 0
1.5 0.2 0
1.8 0.2 0
2.1 0.2 0
2.4 0.2 0
2.7 0.2 0
3 0.2 0
3.3 0.2 0
3.6 0.2 0
3.9 0.2 0
4.2 0.2 0
4.5 0.2 0
4.8 0.2 0
5.1 0.2 0
5.4 0.2 0
5.7 0.2 0
6 0.2 0
6.3 0.2 0
6.6 0.2 0
6.9 0.2 0
7.2 0.2 0
7.5 0.2 0
7.8 0.2 0
8.1 0.2 0
8.4 0.2 0
8.7 0.2 0
9 0.2 0
9.3 0.2 0
9.6 0.2 0
9.9 0.2 0
10.2 0.2 0
10.5 0.2 0
10.8 0.2 0
11.1 0.2 0
11.4 0.2 0
11.7 0.2 0
12 0.2 0
12.3 0.2 0
12.6 0.2 0
12.9 0.2 0
13.2 0.2 0
13.5 0.2 0
13.8 0.2 0
14.1 0.2 0
14.4 0.2 0
14.7 0.2 0
15 0.2 0
15.3 0.2 0
15.6 0.2 0
15.9 0.2 0
16.2 0.2 0
16.5 0.2 0
16.8 0.2 0
17.1 0.2 0
17.4 0.2 0
17.7 0.2 0
18 0.2 0
18.3 0.2 0
18.6 0.2 0
18.9 0.2 0
19.2 0.2 0
19.5 0.2 0
19.8 0.2 0
20.1 0.2 0
20.4 0.2 0
20.7 0.2 0
21 0.2 0
21.3 0.2 0
21.6 0.2 0
21.9 0.2 0
22.2 0.2 0
22.5 0.2 0
22.8 0.2 0
23.1 0.2 0
23.4 0.2 0
23.7 0.2 0
24 0.2 0
24.3 0.2 0
24.6 0.2 0
24.9 0.2 0
25.2 0.2 0
25.5 0.2 0
25.8 0.2 0
26.1 0.2 0
26.4 0.2 0
26.7 0.2 0
27 0.2 0
27.3 0.2 0
27.6 0.2 0
27.9 0.2 0
28.2 0.2 0
28.5 0.2 0
28.8 0.2 0
29.1 0.2 0
29.4 0.2 0
29.7 0.2 0
30 0.2 0
30.3 0.2 0
0 0.3 0
0.3 0.3 0
0.6 0.3 0
0.9 0.3 0
1.2 0.3 0
1.5 0.3 0
1.8 0.3 0
2.1 0.3 0
2.4 0.3 0
2.7 0.3 0
3 0.3 0
3.3 0.3 0
3.6 0.3 0
3.9 0.3 0
4.2 0.3 0
4.5 0.3 0
4.8 0.3 0
5.1 0.3 0
5.4 0.3 0
5.7 0.3 0
6 0.3 0
6.3 0.3 0
6.6 0.3 0
6.9 0.3 0
7.2 0.3 0
7.5 0.3 0
7.8 0.3 0
8.1 0.3 0
8.4 0.3 0
8.7 0.3 0
9 0.3 0
9.3 0.3 0
9.6 0.3 0
9.9 0.3 0
10.2 0.3 0
10.5 0.3 0
10.8 0.3 0
11.1 0.3 0
11.4 0.3 0
11.7 0.3 0
12 0.3 0
12.3 0.3 0
12.6 0.3 0
12.9 0.3 0
13.2 0.3 0
13.5 0.3 0
13.8 0.3 0
14.1 0.3 0
14.4 0.3 0
14.7 0.3 0
15 0.3 0
15.3 0.3 0
15.6 0.3 0
15.9 0.3 0
16.2 0.3 0
16.5 0.3 0
16.8 0.3 0
17.1 0.3 0
17.4 0.3 0
17.7 0.3 0
18 0.3 0
18.3 0.3 0
18.6 0.3 0
18.9 0.3 0
19.2 0.3 0
19.5 0.3 0
19.8 0.3 0
20.1 0.3 0
20.4 0.3 0
20.7 0.3 0
21 0.3 0
21.3 0.3 0
21.6 0.3 0
21.9 0.3 0
22.2 0.3 0
22.5 0.3 0
22.8 0.3 0
23.1 0.3 0
23.4 0.3 0
23.7 0.3 0
24 0.3 0
24.3 0.3 0
24.6 0.3 0
24.9 0.3 0
25.2 0.3 0
25.5 0.3 0
25.8 0.3 0
26.1 0.3 0
26.4 0.3 0
26.7 0.3 0
27 0.3 0
27.3 0.3 0
27.6 0.3 0
27.9 0.3 0
28.2 0.3 0
28.5 0.3 0
28.8 0.3 0
29.1 0.3 0
29.4 0.3 0
29.7 0.3 0
30 0.3 0
30.3 0.3 0
0 0.4 0
0.3 0.4 0
0.6 0.4 0
0.9 0.4 0
1.2 0.4 0
1.5 0.4 0
1.8 0.4 0
2.1 0.4 0
2.4 0.4 0
2.7 0.4 0
3 0.4 0
3.3 0.4 0
3.6 0.4 0
3.9 0.4 0
4.2 0.4 0
4.5 0.4 0
4.8 0.4 0
5.1 0.4 0
5.4 0.4 0
5.7 0.4 0
6 0.4 0
6.3 0.4 0
6.6 0.4 0
6.9 0.4 0
7.2 0.4 0
7.5 0.4 0
7.8 0.4 0
8.1 0.4 0
8.4 0.4 0
8.7 0.4 0
9 0.4 0
9.3 0.4 0
9.6 0.4 0
9.9 0.4 0
10.2 0.4 0
10.5 0.4 0
10.8 0.4 0
11.1 0.4 0
11.4 0.4 0
11.7 0.4 0
12 0.4 0
12.3 0.4 0
12.6 0.4 0
12.9 0.4 0
13.2 0.4 0
13.5 0.4 0
13.8 0.4 0
14.1 0.4 0
14.4 0.4 0
14.7 0.4 0
15 0.4 0
15.3 0.4 0
15.6 0.4 0
15.9 0.4 0
16.2 0.4 0
16.5 0.4 0
16.8 0.4 0
17.1 0.4 0
17.4 0.4 0
17.7 0.4 0
18 0.4 0
18.3 0.4 0
18.6 0.4 0
18.9 0.4 0
19.2 0.4 0
19.5 0.4 0
19.8 0.4 0
20.1 0.4 0
20.4 0.4 0
20.7 0.4 0
21 0.4 0
21.3 0.4 0
21.6 0.4 0
21.9 0.4 0
22.2 0.4 0
22.5 0.4 0
22.8 0.4 0
23.1 0.4 0
23.4 0.4 0
23.7 0.4 0
24 0.4 0
24.3 0.4 0
24.6 0.4 0
24.9 0.4 0
25.2 0.4 0
25.5 0.4 0
25.8 0.4 0
26.1 0.4 0
26.4 0.4 0
26.7 0.4 0
27 0.4 0
27.3 0.4 0
27.6 0.4 0
27.9 0.4 0
28.2 0.4 0
28.5 0.4 0
28.8 0.4 0
29.1 0.4 0
29.4 0.4 0
29.7 0.4 0
30 0.4 0
30.3 0.4 0
0 0.5 0
0.3 0.5 0
0.6 0.5 0
0.9 0.5 0
1.2 0.5 0
1.5 0.5 0
1.8 0.5 0
2.1 0.5 0
2.4 0.5 0
2.7 0.5 0
3 0.5 0
3.3 0.5 0
3.6 0.5 0
3.9 0.5 0
4.2 0.5 0
4.5 0.5 0
4.8 0.5 0
5.1 0.5 0
5.4 0.5 0
5.7 0.5 0
6 0.5 0
6.3 0.5 0
6.6 0.5 0
6.9 0.5 0
7.2 0.5 0
7.5 0.5 0
7.8 0.5 0
8.1 0.5 0
8.4 0.5 0
8.7 0.5 0
9 0.5 0
9.3 0.5 0
9.6 0.5 0
9.9 0.5 0
10.2 0.5 0
10.5 0.5 0
10.8 0.5 0
11.1 0.5 0
11.4 0.5 0
11.7 0.5 0
12 0.5 0
12.3 0.5 0
12.6 0.5 0
12.9 0.5 0
13.2 0.5 0
13.5 0.5 0
13.8 0.5 0
14.1 0.5 0
14.4 0.5 0
14.7 0.5 0
15 0.5 0
15.3 0.5 0
15.6 0.5 0
15.9 0.5 0
16.2 0.5 0
16.5 0.5 0
16.8 0.5 0
17.1 0.5 0
17.4 0.5 0
17.7 0.5 0
18 0.5 0
18.3 0.5 0
18.6 0.5 0
18.9 0.5 0
19.2 0.5 0
19.5 0.5 0
19.8 0.5 0
20.1 0.5 0
20.4 0.5 0
20.7 0.5 0
21 0.5 0
21.3 0.5 0
21.6 0.5 0
21.9 0.5 0
22.2 0.5 0
22.5 0.5 0
22.8 0.5 0
23.1 0.5 0
23.4 0.5 0
23.7 0.5 0
24 0.5 0
24.3 0.5 0
24.6 0.5 0
24.9 0.5 0
25.2 0.5 0
25.5 0.5 0
25.8 0.5 0
26.1 0.5 0
26.4 0.5 0
26.7 0.5 0
27 0.5 0
27.3 0.5 0
27.6 0.5 0
27.9 0.5 0
28.2 0.5 0
28.5 0.5 0
28.8 0.5 0
29.1 0.5 0
29.4 0.5 0
29.7 0.5 0
30 0.5 0
30.3 0.5 0
0 0.6 0
0.3 0.6 0
0.6 0.6 0
0.9 0.6 0
1.2 0.6 0
1.5 0.6 0
1.8 0.6 0
2.1 0.6 0
2.4 0.6 0
2.7 0.6 0
3 0.6 0
3.3 0.6 0
3.6 0.6 0
3.9 0.6 0
4.2 0.6 0
4.5 0.6 0
4.8 0.6 0
5.1 0.6 0
5.4 0.6 0
5.7 0.6 0
6 0.6 0
6.3 0.6 0
6.6 0.6 0
6.9 0.6 0
7.2 0.6 0
7.5 0.6 0
7.8 0.6 0
8.1 0.6 0
8.4 0.6 0
8.7 0.6 0
9 0.6 0
9.3 0.6 0
9.6 0.6 0
9.9 0.6 0
10.2 0.6 0
10.5 0.6 0
10.8 0.6 0
11.1 0.6 0
11.4 0.6 0
11.7 0.6 0
12 0.6 0
12.3 0.6 0
12.6 0.6 0
12.9 0.6 0
13.2 0.6 0
13.5 0.6 0
13.8 0.6 0
14.1 0.6 0
14.4 0.6 0
14.7 0.6 0
15 0.6 0
15.3 0.6 0
15.6 0.6 0
15.9 0.6 0
16.2 0.6 0
16.5 0.6 0
16.8 0.6 0
17.1 0.6 0
17.4 0.6 0
17.7 0.6 0
18 0.6 0
18.3 0.6 0
18.6 0.6 0
18.9 0.6 0
19.2 0.6 0
19.5 0.6 0
19.8 0.6 0
20.1 0.6 0
20.4 0.6 0
20.7 0.6 0
21 0.6 0
21.3 0.6 0
21.6 0.6 0
21.9 0.6 0
22.2 0.6 0
22.5 0.6 0
22.8 0.6 0
23.1 0.6 0
23.4 0.6 0
23.7 0.6 0
24 0.6 0
24.3 0.6 0
24.6 0.6 0
24.9 0.6 0
25.2 0.6 0
25.5 0.6 0
25.8 0.6 0
26.1 0.6 0
26.4 0.6 0
26.7 0.6 0
27 0.6 0
27.3 0.6 0
27.6 0.6 0
27.9 0.6 0
28.2 0.6 0
28.5 0.6 0
28.8 0.6 0
29.1 0.6 0
29.4 0.6 0
29.7 0.6 0
30 0.6 0
30.3 0.6 0
0 0.7 0
0.3 0.7 0
0.6 0.7 0
0.9 0.7 0
1.2 0.7 0
1.5 0.7 0
1.8 0.7 0
2.1 0.7 0
2.4 0.7 0
2.7 0.7 0
3 0.7 0
3.3 0.7 0
3.6 0.7 0
3.9 0.7 0
4.2 0.7 0
4.5 0.7 0
4.8 0.7 0
5.1 0.7 0
5.4 0.7 0
5.7 0.7 0
6 0.7 0
6.3 0.7 0
6.6 0.7 0
6.9 0.7 0
7.2 0.7 0
7.5 0.7 0
7.8 0.7 0
8.1 0.7 0
8.4 0.7 0
8.7 0.7 0
9 0.7 0
9.3 0.7 0
9.6 0.7 0
9.9 0.7 0
10.2 0.7 0
10.5 0.7 0
10.8 0.7 0
11.1 0.7 0
11.4 0.7 0
11.7 0.7 0
12 0.7 0
12.3 0.7 0
12.6 0.7 0
12.9 0.7 0
13.2 0.7 0
13.5 0.7 0
13.8 0.7 0
14.1 0.7 0
14.4 0.7 0
14.7 0.7 0
15 0.7 0
15.3 0.7 0
15.6 0.7 0
15.9 0.7 0
16.2 0.7 0
16.5 0.7 0
16.8 0.7 0
17.1 0.7 0
17.4 0.7 0
17.7 0.7 0
18 0.7 0
18.3 0.7 0
18.6 0.7 0
18.9 0.7 0
19.2 0.7 0
19.5 0.7 0
19.8 0.7 0
20.1 0.7 0
20.4 0.7 0
20.7 0.7 0
21 0.7 0
21.3 0.7 0
21.6 0.7 0
21.9 0.7 0
22.2 0.7 0
22.5 0.7 0
22.8 0.7 0
23.1 0.7 0
23.4 0.7 0
23.7 0.7 0
24 0.7 0
24.3 0.7 0
24.6 0.7 0
24.9 0.7 0
25.2 0.7 0
25.5 0.7 0
25.8 0.7 0
26.1 0.7 0
26.4 0.7 0
26.7 0.7 0
27 0.7 0
27.3 0.7 0
27.6 0.7 0
27.9 0.7 0
28.2 0.7 0
28.5 0.7 0
28.8 0.7 0
29.1 0.7 0
29.4 0.7 0
29.7 0.7 0
30 0.7 0
30.3 0.7 0
0 0.8 0
0.3 0.8 0
0.6 0.8 0
0.9 0.8 0
1.2 0.8 0
1.5 0.8 0
1.8 0.8 0
2.1 0.8 0
2.4 0.8 0
2.7 0.8 0
3 0.8 0
3.3 0.8 0
3.6 0.8 0
3.9 0.8 0
4.2 0.8 0
4.5 0.8 0
4.8 0.8 0
5.1 0.8 0
5.4 0.8 0
5.7 0.8 0
6 0.8 0
6.3 0.8 0
6.6 0.8 0
6.9 0.8 0
7.2 0.8 0
7.5 0.8 0
7.8 0.8 0
8.1 0.8 0
8.4 0.8 0
8.7 0.8 0
9 0.8 0
9.3 0.8 0
9.6 0.8 0
9.9 0.8 0
10.2 0.8 0
10.5 0.8 0
10.8 0.8 0
11.1 0.8 0
11.4 0.8 0
11.7 0.8 0
12 0.8 0
12.3 0.8 0
12.6 0.8 0
12.9 0.8 0
13.2 0.8 0
13.5 0.8 0
13.8 0.8 0
14.1 0.8 0
14.4 0.8 0
14.7 0.8 0
15 0.8 0
15.3 0.8 0
15.6 0.8 0
15.9 0.8 0
16.2 0.8 0
16.5 0.8 0
16.8 0.8 0
17.1 0.8 0
17.4 0.8 0
17.7 0.8 0
18 0.8 0
18.3 0.8 0
18.6 0.8 0
18.9 0.8 0
19.2 0.8 0
19.5 0.8 0
19.8 0.8 0
20.1 0.8 0
20.4 0.8 0
20.7 0.8 0
21 0.8 0
21.3 0.8 0
21.6 0.8 0
21.9 0.8 0
22.2 0.8 0
22.5 0.8 0
22.8 0.8 0
23.1 0.8 0
23.4 0.8 0
23.7 0.8 0
24 0.8 0
24.3 0.8 0
24.6 0.8 0
24.9 0.8 0
25.2 0.8 0
25.5 0.8 0
25.8 0.8 0
26.1 0.8 0
26.4 0.8 0
26.7 0.8 0
27 0.8 0
27.3 0.8 0
27.6 0.8 0
27.9 0.8 0
28.2 0.8 0
28.5 0.8 0
28.8 0.8 0
29.1 0.8 0
29.4 0.8 0
29.7 0.8 0
30 0.8 0
30.3 0.8 0
0 0.9 0
0.3 0.9 0
0.6 0.9 0
0.9 0.9 0
1.2 0.9 0
1.5 0.9 0
1.8 0.9 0
2.1 0.9 0
2.4 0.9 0
2.7 0.9 0
3 0.9 0
3.3 0.9 0
3.6 0.9 0
3.9 0.9 0
4.2 0.9 0
4.5 0.9 0
4.8 0.9 0
5.1 0.9 0
5.4 0.9 0
5.7 0.9 0
6 0.9 0
6.3 0.9 0
6.6 0.9 0
6.9 0.9 0
7.2 0.9 0
7.5 0.9 0
7.8 0.9 0
8.1 0.9 0
8.4 0.9 0
8.7 0.9 0
9 0.9 0
9.3 0.9 0
9.6 0.9 0
9.9 0.9 0
10.2 0.9 0
10.5 0.9 0
10.8 0.9 0
11.1 0.9 0
11.4 0.9 0
11.7 0.9 0
12 0.9 0
12.3 0.9 0
12.6 0.9 0
12.9 0.9 0
13.2 0.9 0
13.5 0.9 0
13.8 0.9 0
14.1 0.9 0
14.4 0.9 0
14.7 0.9 0
15 0.9 0
15.3 0.9 0
15.6 0.9 0
15.9 0.9 0
16.2 0.9 0
16.5 0.9 0
16.8 0.9 0
17.1 0.9 0
17.4 0.9 0
17.7 0.9 0
18 0.9 0
18.3 0.9 0
18.6 0.9 0
18.9 0.9 0
19.2 0.9 0
19.5 0.9 0
19.8 0.9 0
20.1 0.9 0
20.4 0.9 0
20.7 0.9 0
21 0.9 0
21.3 0.9 0
21.6 0.9 0
21.9 0.9 0
22.2 0.9 0
22.5 0.9 0
22.8 0.9 0
23.1 0.9 0
23.4 0.9 0
23.7 0.9 0
24 0.9 0
24.3 0.9 0
24.6 0.9 0
24.9 0.9 0
25.2 0.9 0
25.5 0.9 0
25.8 0.9 0
26.1 0.9 0
26.4 0.9 0
26.7 0.9 0
27 0.9 0
27.3 0.9 0
27.6 0.9 0
27.9 0.9 0
28.2 0.9 0
28.5 0.9 0
28.8 0.9 0
29.1 0.9 0
29.4 0.9 0
29.7 0.9 0
30 0.9 0
30.3 0.9 0
0 1 0
0.3 1 0
0.6 1 0
0.9 1 0
1.2 1 0
1.5 1 0
1.8 1 0
2.1 1 0
2.4 1 0
2.7 1 0
3 1 0
3.3 1 0
3.6 1 0
3.9 1 0
4.2 1 0
4.5 1 0
4.8 1 0
5.1 1 0
5.4 1 0
5.7 1 0
6 1 0
6.3 1 0
6.6 1 0
6.9 1 0
7.2 1 0
7.5 1 0
7.8 1 0
8.1 1 0
8.4 1 0
8.7 1 0
9 1 0
9.3 1 0
9.6 1 0
9.9 1 0
10.2 1 0
10.5 1 0
10.8 1 0
11.1 1 0
11.4 1 0
11.7 1 0
12 1 0
12.3 1 0
12.6 1 0
12.9 1 0
13.2 1 0
13.5 1 0
13.8 1 0
14.1 1 0
14.4 1 0
14.7 1 0
15 1 0
15.3 1 0
15.6 1 0
15.9 1 0
16.2 1 0
16.5 1 0
16.8 1 0
17.1 1 0
17.4 1 0
17.7 1 0
18 1 0
18.3 1 0
18.6 1 0
18.9 1 0
19.2 1 0
19.5 1 0
19.8 1 0
20.1 1 0
20.4 1 0
20.7 1 0
21 1 0
21.3 1 0
21.6 1 0
21.9 1 0
22.2 1 0
22.5 1 0
22.8 1 0
23.1 1 0
23.4 1 0
23.7 1 0
24 1 0
24.3 1 0
24.6 1 0
24.9 1 0
25.2 1 0
25.5 1 0
25.8 1 0
26.1 1 0
26.4 1 0
26.7 1 0
27 1 0
27.3 1 0
27.6 1 0
27.9 1 0
28.2 1 0
28.5 1 0
28.8 1 0
29.1 1 0
29.4 1 0
29.7 1 0
30 1 0
30.3 1 0
0 1.1 0
0.3 1.1 0
0.6 1.1 0
0.9 1.1 0
1.2 1.1 0
1.5 1.1 0
1.8 1.1 0
2.1 1.1 0
2.4 1.1 0
2.7 1.1 0
3 1.1 0
3.3 1.1 0
3.6 1.1 0
3.9 1.1 0
4.2 1.1 0
4.5 1.1 0
4.8 1.1 0
5.1 1.1 0
5.4 1.1 0
5.7 1.1 0
6 1.1 0
6.3 1.1 0
6.6 1.1 0
6.9 1.1 0
7.2 1.1 0
7.5 1.1 0
7.8 1.1 0
8.1 1.1 0
8.4 1.1 0
8.7 1.1 0
9 1.1 0
9.3 1.1 0
9.6 1.1 0
9.9 1.1 0
10.2 1.1 0
10.5 1.1 0
10.8 1.1 0
11.1 1.1 0
11.4 1.1 0
11.7 1.1 0
12 1.1 0
12.3 1.1 0
12.6 1.1 0
12.9 1.1 0
13.2 1.1 0
13.5 1.1 0
13.8 1.1 0
14.1 1.1 0
14.4 1.1 0
14.7 1.1 0
15 1.1 0
15.3 1.1 0
15.6 1.1 0
15.9 1.1 0
16.2 1.1 0
16.5 1.1 0
16.8 1.1 0
17.1 1.1 0
17.4 1.1 0
17.7 1.1 0
18 1.1 0
18.3 1.1 0
18.6 1.1 0
18.9 1.1 0
19.2 1.1 0
19.5 1.1 0
19.8 1.1 0
20.1 1.1 0
20.4 1.1 0
20.7 1.1 0
21 1.1 0
21.3 1.1 0
21.6 1.1 0
21.9 1.1 0
22.2 1.1 0
22.5 1.1 0
22.8 1.1 0
23.1 1.1 0
23.4 1.1 0
23.7 1.1 0
24 1.1 0
24.3 1.1 0
24.6 1.1 0
24.9 1.1 0
25.2 1.1 0
25.5 1.1 0
25.8 1.1 0
26.1 1.1 0
26.4 1.1 0
26.7 1.1 0
27 1.1 0
27.3 1.1 0
27.6 1.1 0
27.9 1.1 0
28.2 1.1 0
28.5 1.1 0
28.8 1.1 0
29.1 1.1 0
29.4 1.1 0
29.7 1.1 0
30 1.1 0
30.3 1.1 0
0 1.2 0
0.3 1.2 0
0.6 1.2 0
0.9 1.2 0
1.2 1.2 0
1.5 1.2 0
1.8 1.2 0
2.1 1.2 0
2.4 1.2 0
2.7 1.2 0
3 1.2 0
3.3 1.2 0
3.6 1.2 0
3.9 1.2 0
4.2 1.2 0
4.5 1.2 0
4.8 1.2 0
5.1 1.2 0
5.4 1.2 0
5.7 1.2 0
6 1.2 0
6.3 1.2 0
6.6 1.2 0
6.9 1.2 0
7.2 1.2 0
7.5 1.2 0
7.8 1.2 0
8.1 1.2 0
8.4 1.2 0
8.7 1.2 0
9 1.2 0
9.3 1.2 0
9.6 1.2 0
9.9 1.2 0
10.2 1.2 0
10.5 1.2 0
10.8 1.2 0
11.1 1.2 0
11.4 1.2 0
11.7 1.2 0
12 1.2 0
12.3 1.2 0
12.6 1.2 0
12.9 1.2 0
13.2 1.2 0
13.5 1.2 0
13.8 1.2 0
14.1 1.2 0
14.4 1.2 0
14.7 1.2 0
15 1.2 0
15.3 1.2 0
15.6 1.2 0
15.9 1.2 0
16.2 1.2 0
16.5 1.2 0
16.8 1.2 0
17.1 1.2 0
17.4 1.2 0
17.7 1.2 0
18 1.2 0
18.3 1.2 0
18.6 1.2 0
18.9 1.2 0
19.2 1.2 0
19.5 1.2 0
19.8 1.2 0
20.1 1.2 0
20.4 1.2 0
20.7 1.2 0
21 1.2 0
21.3 1.2 0
21.6 1.2 0
21.9 1.2 0
22.2 1.2 0
22.5 1.2 0
22.8 1.2 0
23.1 1.2 0
23.4 1.2 0
23.7 1.2 0
24 1.2 0
24.3 1.2 0
24.6 1.2 0
24.9 1.2 0
25.2 1.2 0
25.5 1.2 0
25.8 1.2 0
26.1 1.2 0
26.4 1.2 0
26.7 1.2 0
27 1.2 0
27.3 1.2 0
27.6 1.2 0
27.9 1.2 0
28.2 1.2 0
28.5 1.2 0
28.8 1.2 0
29.1 1.2 0
29.4 1.2 0
29.7 1.2 0
30 1.2 0
30.3 1.2 0

POINT_DATA 1326

SCALARS p double
LOOKUP_TABLE default
1.16054
1.16054
1.09569
1.05146
1.01163
0.975059
0.942006
0.912478
0.886123
0.862414
0.840811
0.820848
0.802155
0.784456
0.767549
0.751289
0.735571
0.720315
0.705464
0.690968
0.676793
0.662909
0.64929
0.635909
0.622753
0.609804
0.597046
0.584461
0.572043
0.559781
0.54766
0.535673
0.523811
0.512069
0.500436
0.488907
0.477475
0.466136
0.454883
0.443711
0.432616
0.421593
0.410639
0.399749
0.38892
0.378149
0.367432
0.356766
0.346149
0.335578
0.32505
0.314564
0.304116
0.293705
0.283329
0.272986
0.262674
0.252391
0.242137
0.231909
0.221706
0.211526
0.201369
0.191233
0.181117
0.171021
0.160942
0.150881
0.140835
0.130806
0.120791
0.11079
0.100803
0.0908294
0.0808683
0.0709193
0.0609821
0.0510563
0.0411414
0.0312371
0.021343
0.0114585
0.00158318
-0.0082834
-0.0181418
-0.0279925
-0.0378362
-0.0476734
-0.0575046
-0.0673304
-0.0771514
-0.086968
-0.0967809
-0.10659
-0.116397
-0.126201
-0.136003
-0.145804
-0.155602
-0.1654
-0.175196
0.175196
1.16054
1.16054
1.09569
1.05146
1.01163
0.975059
0.942006
0.912478
0.886123
0.862414
0.840811
0.820848
0.802155
0.784456
0.767549
0.751289
0.735571
0.720315
0.705464
0.690968
0.676793
0.662909
0.64929
0.635909
0.622753
0.609804
0.597046
0.584461
0.572043
0.559781
0.54766
0.535673
0.523811
0.512069
0.500436
0.488907
0.477475
0.466136
0.454883
0.443711
0.432616
0.421593
0.410639
0.399749
0.38892
0.378149
0.367432
0.356766
0.346149
0.335578
0.32505
0.314564
0.304116
0.293705
0.283329
0.272986
0.262674
0.252391
0.242137
0.231909
0.221706
0.211526
0.201369
0.191233
0.181117
0.171021
0.160942
0.150881
0.140835
0.130806
0.120791
0.11079
0.100803
0.0908294
0.0808683
0.0709193
0.0609821
0.0510563
0.0411414
0.0312371
0.021343
0.0114585
0.00158318
-0.0082834
-0.0181418
-0.0279925
-0.0378362
-0.0476734
-0.0575046
-0.0673304
-0.0771514
-0.086968
-0.0967809
-0.10659
-0.116397
-0.126201
-0.136003
-0.145804
-0.155602
-0.1654
-0.175196
0.175196
1.13959
1.13959
1.0937
1.05169
1.01234
0.975855
0.942749
0.913109
0.88663
0.862809
0.841115
0.821081
0.802337
0.784601
0.767666
0.751387
0.735653
0.720387
0.705526
0.691023
0.676842
0.662954
0.64933
0.635946
0.622786
0.609836
0.597074
0.584487
0.572068
0.559803
0.547681
0.535692
0.523829
0.512086
0.500452
0.488921
0.477489
0.466149
0.454895
0.443722
0.432627
0.421603
0.410648
0.399758
0.388929
0.378157
0.367439
0.356773
0.346156
0.335584
0.325056
0.314569
0.304121
0.29371
0.283334
0.27299
0.262678
0.252395
0.24214
0.231912
0.221709
0.211529
0.201372
0.191236
0.18112
0.171023
0.160944
0.150883
0.140837
0.130808
0.120793
0.110792
0.100805
0.0908309
0.0808696
0.0709205
0.0609832
0.0510573
0.0411423
0.0312379
0.0213437
0.0114591
0.00158368
-0.00828297
-0.0181414
-0.0279922
-0.037836
-0.0476732
-0.0575044
-0.0673303
-0.0771513
-0.086968
-0.0967809
-0.10659
-0.116397
-0.126201
-0.136003
-0.145804
-0.155602
-0.1654
-0.175196
0.175196
1.12462
1.12462
1.09082
1.05192
1.01345
0.977179
0.94401
0.914187
0.887492
0.863468
0.841607
0.821446
0.802609
0.784806
0.767825
0.751512
0.735755
0.720471
0.705597
0.691084
0.676896
0.663001
0.649371
0.635983
0.62282
0.609866
0.5971
0.584512
0.572091
0.559824
0.547699
0.535709
0.523846
0.512101
0.500465
0.488934
0.477501
0.46616
0.454905
0.443732
0.432635
0.421611
0.410656
0.399765
0.388935
0.378163
0.367445
0.356779
0.346161
0.335589
0.325061
0.314574
0.304125
0.293714
0.283337
0.272994
0.262681
0.252398
0.242143
0.231915
0.221711
0.211532
0.201374
0.191238
0.181122
0.171025
0.160946
0.150884
0.140839
0.130809
0.120794
0.110793
0.100806
0.090832
0.0808706
0.0709214
0.060984
0.051058
0.041143
0.0312385
0.0213442
0.0114595
0.00158407
-0.00828264
-0.0181412
-0.027992
-0.0378358
-0.0476731
-0.0575043
-0.0673302
-0.0771512
-0.0869679
-0.0967808
-0.10659
-0.116397
-0.126201
-0.136003
-0.145804
-0.155602
-0.1654
-0.175195
0.175195
1.11504
1.11504
1.08834
1.05202
1.0144
0.978374
0.945187
0.915224
0.888345
0.86414
0.842124
0.821841
0.802911
0.78504
0.76801
0.751661
0.735878
0.720574
0.705685
0.69116
0.676962
0.663059
0.649422
0.636029
0.622862
0.609903
0.597133
0.584543
0.572119
0.559849
0.547722
0.53573
0.523865
0.512118
0.500482
0.488949
0.477515
0.466173
0.454917
0.443743
0.432646
0.421621
0.410665
0.399774
0.388943
0.37817
0.367452
0.356785
0.346167
0.335595
0.325066
0.314579
0.30413
0.293718
0.283341
0.272998
0.262685
0.252402
0.242147
0.231918
0.221714
0.211534
0.201377
0.191241
0.181124
0.171027
0.160948
0.150886
0.140841
0.130811
0.120796
0.110795
0.100808
0.0908334
0.080872
0.0709227
0.0609852
0.0510591
0.041144
0.0312395
0.0213451
0.0114603
0.00158482
-0.00828195
-0.0181405
-0.0279915
-0.0378353
-0.0476726
-0.057504
-0.0673299
-0.0771509
-0.0869677
-0.0967806
-0.10659
-0.116397
-0.126201
-0.136003
-0.145803
-0.155602
-0.165399
-0.175193
0.175193
1.10973
1.10973
1.08671
1.05204
1.01499
0.97914
0.945956
0.915913
0.888922
0.864604
0.842489
0.822125
0.803134
0.785217
0.768153
0.751779
0.735977
0.720659
0.705758
0.691224
0.677019
0.66311
0.649467
0.63607
0.622899
0.609936
0.597164
0.584571
0.572144
0.559872
0.547744
0.53575
0.523884
0.512135
0.500497
0.488964
0.477528
0.466185
0.454928
0.443754
0.432656
0.42163
0.410674
0.399782
0.388951
0.378178
0.367459
0.356792
0.346173
0.3356
0.325071
0.314584
0.304135
0.293723
0.283345
0.273001
0.262688
0.252405
0.24215
0.231921
0.221717
0.211537
0.201379
0.191243
0.181127
0.171029
0.16095
0.150888
0.140843
0.130813
0.120797
0.110796
0.100809
0.0908349
0.0808733
0.070924
0.0609865
0.0510603
0.0411452
0.0312406
0.0213461
0.0114613
0.00158573
-0.00828111
-0.0181398
-0.0279908
-0.0378347
-0.047672
-0.0575034
-0.0673294
-0.0771505
-0.0869673
-0.0967803
-0.10659
-0.116397
-0.126201
-0.136003
-0.145803
-0.155602
-0.165398
-0.175191
0.175191
1.10803
1.10803
1.08616
1.05205
1.01521
0.979414
0.94623
0.916159
0.889129
0.864771
0.842621
0.82223
0.803217
0.785283
0.768207
0.751825
0.736016
0.720692
0.705787
0.69125
0.677043
0.663131
0.649486
0.636087
0.622915
0.60995
0.597177
0.584583
0.572155
0.559882
0.547753
0.535759
0.523891
0.512142
0.500504
0.48897
0.477534
0.46619
0.454933
0.443758
0.43266
0.421635
0.410678
0.399785
0.388954
0.378181
0.367462
0.356794
0.346176
0.335603
0.325074
0.314586
0.304137
0.293725
0.283347
0.273003
0.26269
0.252407
0.242151
0.231922
0.221718
0.211538
0.20138
0.191244
0.181128
0.17103
0.160951
0.150889
0.140843
0.130813
0.120798
0.110797
0.10081
0.0908355
0.0808739
0.0709246
0.0609871
0.0510609
0.0411457
0.0312411
0.0213466
0.0114618
0.00158616
-0.00828071
-0.0181394
-0.0279904
-0.0378344
-0.0476717
-0.0575032
-0.0673292
-0.0771503
-0.0869672
-0.0967802
-0.10659
-0.116397
-0.126201
-0.136003
-0.145803
-0.155602
-0.165397
-0.175191
0.175191
1.10973
1.10973
1.08671
1.05204
1.01499
0.97914
0.945956
0.915914
0.888922
0.864604
0.842489
0.822125
0.803134
0.785217
0.768153
0.751779
0.735977
0.720659
0.705758
0.691224
0.677019
0.66311
0.649467
0.63607
0.622899
0.609936
0.597164
0.584571
0.572144
0.559872
0.547744
0.535751
0.523884
0.512135
0.500497
0.488964
0.477528
0.466185
0.454928
0.443754
0.432656
0.421631
0.410674
0.399782
0.388951
0.378178
0.367459
0.356791
0.346173
0.3356
0.325071
0.314584
0.304135
0.293723
0.283346
0.273001
0.262688
0.252405
0.24215
0.231921
0.221717
0.211537
0.201379
0.191243
0.181127
0.171029
0.16095
0.150888
0.140843
0.130813
0.120797
0.110796
0.100809
0.0908349
0.0808733
0.070924
0.0609865
0.0510603
0.0411452
0.0312406
0.0213461
0.0114613
0.00158574
-0.00828111
-0.0181398
-0.0279908
-0.0378347
-0.047672
-0.0575034
-0.0673294
-0.0771505
-0.0869673
-0.0967803
-0.10659
-0.116397
-0.126201
-0.136003
-0.145803
-0.155602
-0.165398
-0.175191
0.175191
1.11504
1.11504
1.08834
1.05202
1.0144
0.978373
0.945187
0.915224
0.888345
0.86414
0.842124
0.821841
0.802911
0.78504
0.76801
0.751661
0.735878
0.720574
0.705684
0.69116
0.676963
0.663059
0.649422
0.636029
0.622862
0.609902
0.597133
0.584543
0.572119
0.559848
0.547722
0.535731
0.523865
0.512118
0.500482
0.488949
0.477515
0.466173
0.454917
0.443743
0.432646
0.421621
0.410665
0.399774
0.388943
0.37817
0.367452
0.356785
0.346167
0.335595
0.325066
0.314579
0.30413
0.293718
0.283341
0.272998
0.262685
0.252402
0.242147
0.231918
0.221714
0.211534
0.201377
0.191241
0.181124
0.171027
0.160948
0.150886
0.140841
0.130811
0.120796
0.110795
0.100808
0.0908334
0.080872
0.0709227
0.0609852
0.0510591
0.041144
0.0312395
0.0213451
0.0114603
0.00158484
-0.00828195
-0.0181405
-0.0279915
-0.0378353
-0.0476726
-0.0575039
-0.0673299
-0.0771509
-0.0869677
-0.0967806
-0.10659
-0.116397
-0.126201
-0.136003
-0.145803
-0.155602
-0.165399
-0.175193
0.175193
1.12462
1.12462
1.09082
1.05192
1.01345
0.977179
0.94401
0.914188
0.887492
0.863468
0.841607
0.821447
0.802609
0.784806
0.767825
0.751512
0.735755
0.720471
0.705596
0.691084
0.676896
0.663
0.64937
0.635983
0.622821
0.609865
0.5971
0.584513
0.572091
0.559823
0.547699
0.53571
0.523846
0.5121
0.500465
0.488934
0.477501
0.46616
0.454905
0.443732
0.432635
0.421611
0.410656
0.399765
0.388935
0.378163
0.367445
0.356779
0.346161
0.335589
0.325061
0.314574
0.304125
0.293714
0.283337
0.272994
0.262681
0.252398
0.242143
0.231915
0.221711
0.211532
0.201374
0.191238
0.181122
0.171025
0.160946
0.150884
0.140839
0.130809
0.120794
0.110793
0.100806
0.090832
0.0808706
0.0709214
0.0609841
0.051058
0.041143
0.0312385
0.0213442
0.0114595
0.0015841
-0.00828263
-0.0181412
-0.027992
-0.0378358
-0.047673
-0.0575043
-0.0673302
-0.0771512
-0.0869679
-0.0967808
-0.10659
-0.116397
-0.126201
-0.136003
-0.145804
-0.155602
-0.1654
-0.175195
0.175195
1.13959
1.13959
1.0937
1.05169
1.01234
0.975854
0.942749
0.91311
0.88663
0.862808
0.841115
0.821082
0.802337
0.784601
0.767666
0.751387
0.735654
0.720387
0.705525
0.691023
0.676843
0.662954
0.649328
0.635946
0.622788
0.609835
0.597073
0.584488
0.572068
0.559803
0.54768
0.535692
0.52383
0.512086
0.500452
0.488922
0.477489
0.466149
0.454895
0.443722
0.432626
0.421603
0.410648
0.399758
0.388929
0.378157
0.367439
0.356773
0.346156
0.335584
0.325056
0.314569
0.304121
0.29371
0.283334
0.27299
0.262678
0.252395
0.24214
0.231912
0.221709
0.211529
0.201372
0.191236
0.18112
0.171023
0.160944
0.150883
0.140837
0.130808
0.120793
0.110792
0.100805
0.0908309
0.0808696
0.0709205
0.0609832
0.0510573
0.0411423
0.0312379
0.0213437
0.0114591
0.00158371
-0.00828296
-0.0181414
-0.0279922
-0.037836
-0.0476732
-0.0575044
-0.0673303
-0.0771513
-0.086968
-0.0967809
-0.10659
-0.116397
-0.126201
-0.136003
-0.145804
-0.155602
-0.1654
-0.175196
0.175196
1.16054
1.16054
1.09569
1.05146
1.01163
0.975058
0.942006
0.912478
0.886123
0.862413
0.840811
0.820848
0.802155
0.784456
0.767549
0.75129
0.735571
0.720315
0.705463
0.690968
0.676794
0.662909
0.649288
0.63591
0.622754
0.609804
0.597044
0.584462
0.572044
0.55978
0.54766
0.535673
0.523812
0.512069
0.500436
0.488907
0.477475
0.466136
0.454883
0.443711
0.432616
0.421593
0.410639
0.399749
0.38892
0.378149
0.367432
0.356766
0.346149
0.335578
0.32505
0.314564
0.304116
0.293705
0.283329
0.272986
0.262674
0.252391
0.242137
0.231909
0.221706
0.211526
0.201369
0.191233
0.181117
0.171021
0.160942
0.150881
0.140835
0.130806
0.120791
0.11079
0.100803
0.0908294
0.0808682
0.0709193
0.0609821
0.0510563
0.0411414
0.0312371
0.021343
0.0114585
0.0015832
-0.00828338
-0.0181418
-0.0279925
-0.0378362
-0.0476734
-0.0575046
-0.0673304
-0.0771513
-0.086968
-0.0967809
-0.10659
-0.116397
-0.126201
-0.136003
-0.145804
-0.155602
-0.1654
-0.175196
0.175196
1.16054
1.16054
1.09569
1.05146
1.01163
0.975058
0.942006
0.912478
0.886123
0.862413
0.840811
0.820848
0.802155
0.784456
0.767549
0.75129
0.735571
0.720315
0.705463
0.690968
0.676794
0.662909
0.649288
0.63591
0.622754
0.609804
0.597044
0.584462
0.572044
0.55978
0.54766
0.535673
0.523812
0.512069
0.500436
0.488907
0.477475
0.466136
0.454883
0.443711
0.432616
0.421593
0.410639
0.399749
0.38892
0.378149
0.367432
0.356766
0.346149
0.335578
0.32505
0.314564
0.304116
0.293705
0.283329
0.272986
0.262674
0.252391
0.242137
0.231909
0.221706
0.211526
0.201369
0.191233
0.181117
0.171021
0.160942
0.150881
0.140835
0.130806
0.120791
0.11079
0.100803
0.0908294
0.0808682
0.0709193
0.0609821
0.0510563
0.0411414
0.0312371
0.021343
0.0114585
0.0015832
-0.00828338
-0.0181418
-0.0279925
-0.0378362
-0.0476734
-0.0575046
-0.0673304
-0.0771513
-0.086968
-0.0967809
-0.10659
-0.116397
-0.126201
-0.136003
-0.145804
-0.155602
-0.1654
-0.175196
0.175196
