# vtk DataFile Version 2.0
FlowField
ASCII
DATASET STRUCTURED_GRID
DIMENSIONS 101 11 1 
POINTS 1111 double
0 0 0
0.3 0 0
0.6 0 0
0.9 0 0
1.2 0 0
1.5 0 0
1.8 0 0
2.1 0 0
2.4 0 0
2.7 0 0
3 0 0
3.3 0 0
3.6 0 0
3.9 0 0
4.2 0 0
4.5 0 0
4.8 0 0
5.1 0 0
5.4 0 0
5.7 0 0
6 0 0
6.3 0 0
6.6 0 0
6.9 0 0
7.2 0 0
7.5 0 0
7.8 0 0
8.1 0 0
8.4 0 0
8.7 0 0
9 0 0
9.3 0 0
9.6 0 0
9.9 0 0
10.2 0 0
10.5 0 0
10.8 0 0
11.1 0 0
11.4 0 0
11.7 0 0
12 0 0
12.3 0 0
12.6 0 0
12.9 0 0
13.2 0 0
13.5 0 0
13.8 0 0
14.1 0 0
14.4 0 0
14.7 0 0
15 0 0
15.3 0 0
15.6 0 0
15.9 0 0
16.2 0 0
16.5 0 0
16.8 0 0
17.1 0 0
17.4 0 0
17.7 0 0
18 0 0
18.3 0 0
18.6 0 0
18.9 0 0
19.2 0 0
19.5 0 0
19.8 0 0
20.1 0 0
20.4 0 0
20.7 0 0
21 0 0
21.3 0 0
21.6 0 0
21.9 0 0
22.2 0 0
22.5 0 0
22.8 0 0
23.1 0 0
23.4 0 0
23.7 0 0
24 0 0
24.3 0 0
24.6 0 0
24.9 0 0
25.2 0 0
25.5 0 0
25.8 0 0
26.1 0 0
26.4 0 0
26.7 0 0
27 0 0
27.3 0 0
27.6 0 0
27.9 0 0
28.2 0 0
28.5 0 0
28.8 0 0
29.1 0 0
29.4 0 0
29.7 0 0
30 0 0
0 0.1 0
0.3 0.1 0
0.6 0.1 0
0.9 0.1 0
1.2 0.1 0
1.5 0.1 0
1.8 0.1 0
2.1 0.1 0
2.4 0.1 0
2.7 0.1 0
3 0.1 0
3.3 0.1 0
3.6 0.1 0
3.9 0.1 0
4.2 0.1 0
4.5 0.1 0
4.8 0.1 0
5.1 0.1 0
5.4 0.1 0
5.7 0.1 0
6 0.1 0
6.3 0.1 0
6.6 0.1 0
6.9 0.1 0
7.2 0.1 0
7.5 0.1 0
7.8 0.1 0
8.1 0.1 0
8.4 0.1 0
8.7 0.1 0
9 0.1 0
9.3 0.1 0
9.6 0.1 0
9.9 0.1 0
10.2 0.1 0
10.5 0.1 0
10.8 0.1 0
11.1 0.1 0
11.4 0.1 0
11.7 0.1 0
12 0.1 0
12.3 0.1 0
12.6 0.1 0
12.9 0.1 0
13.2 0.1 0
13.5 0.1 0
13.8 0.1 0
14.1 0.1 0
14.4 0.1 0
14.7 0.1 0
15 0.1 0
15.3 0.1 0
15.6 0.1 0
15.9 0.1 0
16.2 0.1 0
16.5 0.1 0
16.8 0.1 0
17.1 0.1 0
17.4 0.1 0
17.7 0.1 0
18 0.1 0
18.3 0.1 0
18.6 0.1 0
18.9 0.1 0
19.2 0.1 0
19.5 0.1 0
19.8 0.1 0
20.1 0.1 0
20.4 0.1 0
20.7 0.1 0
21 0.1 0
21.3 0.1 0
21.6 0.1 0
21.9 0.1 0
22.2 0.1 0
22.5 0.1 0
22.8 0.1 0
23.1 0.1 0
23.4 0.1 0
23.7 0.1 0
24 0.1 0
24.3 0.1 0
24.6 0.1 0
24.9 0.1 0
25.2 0.1 0
25.5 0.1 0
25.8 0.1 0
26.1 0.1 0
26.4 0.1 0
26.7 0.1 0
27 0.1 0
27.3 0.1 0
27.6 0.1 0
27.9 0.1 0
28.2 0.1 0
28.5 0.1 0
28.8 0.1 0
29.1 0.1 0
29.4 0.1 0
29.7 0.1 0
30 0.1 0
0 0.2 0
0.3 0.2 0
0.6 0.2 0
0.9 0.2 0
1.2 0.2 0
1.5 0.2 0
1.8 0.2 0
2.1 0.2 0
2.4 0.2 0
2.7 0.2 0
3 0.2 0
3.3 0.2 0
3.6 0.2 0
3.9 0.2 0
4.2 0.2 0
4.5 0.2 0
4.8 0.2 0
5.1 0.2 0
5.4 0.2 0
5.7 0.2 0
6 0.2 0
6.3 0.2 0
6.6 0.2 0
6.9 0.2 0
7.2 0.2 0
7.5 0.2 0
7.8 0.2 0
8.1 0.2 0
8.4 0.2 0
8.7 0.2 0
9 0.2 0
9.3 0.2 0
9.6 0.2 0
9.9 0.2 0
10.2 0.2 0
10.5 0.2 0
10.8 0.2 0
11.1 0.2 0
11.4 0.2 0
11.7 0.2 0
12 0.2 0
12.3 0.2 0
12.6 0.2 0
12.9 0.2 0
13.2 0.2 0
13.5 0.2 0
13.8 0.2 0
14.1 0.2 0
14.4 0.2 0
14.7 0.2 0
15 0.2 0
15.3 0.2 0
15.6 0.2 0
15.9 0.2 0
16.2 0.2 0
16.5 0.2 0
16.8 0.2 0
17.1 0.2 0
17.4 0.2 0
17.7 0.2 0
18 0.2 0
18.3 0.2 0
18.6 0.2 0
18.9 0.2 0
19.2 0.2 0
19.5 0.2 0
19.8 0.2 0
20.1 0.2 0
20.4 0.2 0
20.7 0.2 0
21 0.2 0
21.3 0.2 0
21.6 0.2 0
21.9 0.2 0
22.2 0.2 0
22.5 0.2 0
22.8 0.2 0
23.1 0.2 0
23.4 0.2 0
23.7 0.2 0
24 0.2 0
24.3 0.2 0
24.6 0.2 0
24.9 0.2 0
25.2 0.2 0
25.5 0.2 0
25.8 0.2 0
26.1 0.2 0
26.4 0.2 0
26.7 0.2 0
27 0.2 0
27.3 0.2 0
27.6 0.2 0
27.9 0.2 0
28.2 0.2 0
28.5 0.2 0
28.8 0.2 0
29.1 0.2 0
29.4 0.2 0
29.7 0.2 0
30 0.2 0
0 0.3 0
0.3 0.3 0
0.6 0.3 0
0.9 0.3 0
1.2 0.3 0
1.5 0.3 0
1.8 0.3 0
2.1 0.3 0
2.4 0.3 0
2.7 0.3 0
3 0.3 0
3.3 0.3 0
3.6 0.3 0
3.9 0.3 0
4.2 0.3 0
4.5 0.3 0
4.8 0.3 0
5.1 0.3 0
5.4 0.3 0
5.7 0.3 0
6 0.3 0
6.3 0.3 0
6.6 0.3 0
6.9 0.3 0
7.2 0.3 0
7.5 0.3 0
7.8 0.3 0
8.1 0.3 0
8.4 0.3 0
8.7 0.3 0
9 0.3 0
9.3 0.3 0
9.6 0.3 0
9.9 0.3 0
10.2 0.3 0
10.5 0.3 0
10.8 0.3 0
11.1 0.3 0
11.4 0.3 0
11.7 0.3 0
12 0.3 0
12.3 0.3 0
12.6 0.3 0
12.9 0.3 0
13.2 0.3 0
13.5 0.3 0
13.8 0.3 0
14.1 0.3 0
14.4 0.3 0
14.7 0.3 0
15 0.3 0
15.3 0.3 0
15.6 0.3 0
15.9 0.3 0
16.2 0.3 0
16.5 0.3 0
16.8 0.3 0
17.1 0.3 0
17.4 0.3 0
17.7 0.3 0
18 0.3 0
18.3 0.3 0
18.6 0.3 0
18.9 0.3 0
19.2 0.3 0
19.5 0.3 0
19.8 0.3 0
20.1 0.3 0
20.4 0.3 0
20.7 0.3 0
21 0.3 0
21.3 0.3 0
21.6 0.3 0
21.9 0.3 0
22.2 0.3 0
22.5 0.3 0
22.8 0.3 0
23.1 0.3 0
23.4 0.3 0
23.7 0.3 0
24 0.3 0
24.3 0.3 0
24.6 0.3 0
24.9 0.3 0
25.2 0.3 0
25.5 0.3 0
25.8 0.3 0
26.1 0.3 0
26.4 0.3 0
26.7 0.3 0
27 0.3 0
27.3 0.3 0
27.6 0.3 0
27.9 0.3 0
28.2 0.3 0
28.5 0.3 0
28.8 0.3 0
29.1 0.3 0
29.4 0.3 0
29.7 0.3 0
30 0.3 0
0 0.4 0
0.3 0.4 0
0.6 0.4 0
0.9 0.4 0
1.2 0.4 0
1.5 0.4 0
1.8 0.4 0
2.1 0.4 0
2.4 0.4 0
2.7 0.4 0
3 0.4 0
3.3 0.4 0
3.6 0.4 0
3.9 0.4 0
4.2 0.4 0
4.5 0.4 0
4.8 0.4 0
5.1 0.4 0
5.4 0.4 0
5.7 0.4 0
6 0.4 0
6.3 0.4 0
6.6 0.4 0
6.9 0.4 0
7.2 0.4 0
7.5 0.4 0
7.8 0.4 0
8.1 0.4 0
8.4 0.4 0
8.7 0.4 0
9 0.4 0
9.3 0.4 0
9.6 0.4 0
9.9 0.4 0
10.2 0.4 0
10.5 0.4 0
10.8 0.4 0
11.1 0.4 0
11.4 0.4 0
11.7 0.4 0
12 0.4 0
12.3 0.4 0
12.6 0.4 0
12.9 0.4 0
13.2 0.4 0
13.5 0.4 0
13.8 0.4 0
14.1 0.4 0
14.4 0.4 0
14.7 0.4 0
15 0.4 0
15.3 0.4 0
15.6 0.4 0
15.9 0.4 0
16.2 0.4 0
16.5 0.4 0
16.8 0.4 0
17.1 0.4 0
17.4 0.4 0
17.7 0.4 0
18 0.4 0
18.3 0.4 0
18.6 0.4 0
18.9 0.4 0
19.2 0.4 0
19.5 0.4 0
19.8 0.4 0
20.1 0.4 0
20.4 0.4 0
20.7 0.4 0
21 0.4 0
21.3 0.4 0
21.6 0.4 0
21.9 0.4 0
22.2 0.4 0
22.5 0.4 0
22.8 0.4 0
23.1 0.4 0
23.4 0.4 0
23.7 0.4 0
24 0.4 0
24.3 0.4 0
24.6 0.4 0
24.9 0.4 0
25.2 0.4 0
25.5 0.4 0
25.8 0.4 0
26.1 0.4 0
26.4 0.4 0
26.7 0.4 0
27 0.4 0
27.3 0.4 0
27.6 0.4 0
27.9 0.4 0
28.2 0.4 0
28.5 0.4 0
28.8 0.4 0
29.1 0.4 0
29.4 0.4 0
29.7 0.4 0
30 0.4 0
0 0.5 0
0.3 0.5 0
0.6 0.5 0
0.9 0.5 0
1.2 0.5 0
1.5 0.5 0
1.8 0.5 0
2.1 0.5 0
2.4 0.5 0
2.7 0.5 0
3 0.5 0
3.3 0.5 0
3.6 0.5 0
3.9 0.5 0
4.2 0.5 0
4.5 0.5 0
4.8 0.5 0
5.1 0.5 0
5.4 0.5 0
5.7 0.5 0
6 0.5 0
6.3 0.5 0
6.6 0.5 0
6.9 0.5 0
7.2 0.5 0
7.5 0.5 0
7.8 0.5 0
8.1 0.5 0
8.4 0.5 0
8.7 0.5 0
9 0.5 0
9.3 0.5 0
9.6 0.5 0
9.9 0.5 0
10.2 0.5 0
10.5 0.5 0
10.8 0.5 0
11.1 0.5 0
11.4 0.5 0
11.7 0.5 0
12 0.5 0
12.3 0.5 0
12.6 0.5 0
12.9 0.5 0
13.2 0.5 0
13.5 0.5 0
13.8 0.5 0
14.1 0.5 0
14.4 0.5 0
14.7 0.5 0
15 0.5 0
15.3 0.5 0
15.6 0.5 0
15.9 0.5 0
16.2 0.5 0
16.5 0.5 0
16.8 0.5 0
17.1 0.5 0
17.4 0.5 0
17.7 0.5 0
18 0.5 0
18.3 0.5 0
18.6 0.5 0
18.9 0.5 0
19.2 0.5 0
19.5 0.5 0
19.8 0.5 0
20.1 0.5 0
20.4 0.5 0
20.7 0.5 0
21 0.5 0
21.3 0.5 0
21.6 0.5 0
21.9 0.5 0
22.2 0.5 0
22.5 0.5 0
22.8 0.5 0
23.1 0.5 0
23.4 0.5 0
23.7 0.5 0
24 0.5 0
24.3 0.5 0
24.6 0.5 0
24.9 0.5 0
25.2 0.5 0
25.5 0.5 0
25.8 0.5 0
26.1 0.5 0
26.4 0.5 0
26.7 0.5 0
27 0.5 0
27.3 0.5 0
27.6 0.5 0
27.9 0.5 0
28.2 0.5 0
28.5 0.5 0
28.8 0.5 0
29.1 0.5 0
29.4 0.5 0
29.7 0.5 0
30 0.5 0
0 0.6 0
0.3 0.6 0
0.6 0.6 0
0.9 0.6 0
1.2 0.6 0
1.5 0.6 0
1.8 0.6 0
2.1 0.6 0
2.4 0.6 0
2.7 0.6 0
3 0.6 0
3.3 0.6 0
3.6 0.6 0
3.9 0.6 0
4.2 0.6 0
4.5 0.6 0
4.8 0.6 0
5.1 0.6 0
5.4 0.6 0
5.7 0.6 0
6 0.6 0
6.3 0.6 0
6.6 0.6 0
6.9 0.6 0
7.2 0.6 0
7.5 0.6 0
7.8 0.6 0
8.1 0.6 0
8.4 0.6 0
8.7 0.6 0
9 0.6 0
9.3 0.6 0
9.6 0.6 0
9.9 0.6 0
10.2 0.6 0
10.5 0.6 0
10.8 0.6 0
11.1 0.6 0
11.4 0.6 0
11.7 0.6 0
12 0.6 0
12.3 0.6 0
12.6 0.6 0
12.9 0.6 0
13.2 0.6 0
13.5 0.6 0
13.8 0.6 0
14.1 0.6 0
14.4 0.6 0
14.7 0.6 0
15 0.6 0
15.3 0.6 0
15.6 0.6 0
15.9 0.6 0
16.2 0.6 0
16.5 0.6 0
16.8 0.6 0
17.1 0.6 0
17.4 0.6 0
17.7 0.6 0
18 0.6 0
18.3 0.6 0
18.6 0.6 0
18.9 0.6 0
19.2 0.6 0
19.5 0.6 0
19.8 0.6 0
20.1 0.6 0
20.4 0.6 0
20.7 0.6 0
21 0.6 0
21.3 0.6 0
21.6 0.6 0
21.9 0.6 0
22.2 0.6 0
22.5 0.6 0
22.8 0.6 0
23.1 0.6 0
23.4 0.6 0
23.7 0.6 0
24 0.6 0
24.3 0.6 0
24.6 0.6 0
24.9 0.6 0
25.2 0.6 0
25.5 0.6 0
25.8 0.6 0
26.1 0.6 0
26.4 0.6 0
26.7 0.6 0
27 0.6 0
27.3 0.6 0
27.6 0.6 0
27.9 0.6 0
28.2 0.6 0
28.5 0.6 0
28.8 0.6 0
29.1 0.6 0
29.4 0.6 0
29.7 0.6 0
30 0.6 0
0 0.7 0
0.3 0.7 0
0.6 0.7 0
0.9 0.7 0
1.2 0.7 0
1.5 0.7 0
1.8 0.7 0
2.1 0.7 0
2.4 0.7 0
2.7 0.7 0
3 0.7 0
3.3 0.7 0
3.6 0.7 0
3.9 0.7 0
4.2 0.7 0
4.5 0.7 0
4.8 0.7 0
5.1 0.7 0
5.4 0.7 0
5.7 0.7 0
6 0.7 0
6.3 0.7 0
6.6 0.7 0
6.9 0.7 0
7.2 0.7 0
7.5 0.7 0
7.8 0.7 0
8.1 0.7 0
8.4 0.7 0
8.7 0.7 0
9 0.7 0
9.3 0.7 0
9.6 0.7 0
9.9 0.7 0
10.2 0.7 0
10.5 0.7 0
10.8 0.7 0
11.1 0.7 0
11.4 0.7 0
11.7 0.7 0
12 0.7 0
12.3 0.7 0
12.6 0.7 0
12.9 0.7 0
13.2 0.7 0
13.5 0.7 0
13.8 0.7 0
14.1 0.7 0
14.4 0.7 0
14.7 0.7 0
15 0.7 0
15.3 0.7 0
15.6 0.7 0
15.9 0.7 0
16.2 0.7 0
16.5 0.7 0
16.8 0.7 0
17.1 0.7 0
17.4 0.7 0
17.7 0.7 0
18 0.7 0
18.3 0.7 0
18.6 0.7 0
18.9 0.7 0
19.2 0.7 0
19.5 0.7 0
19.8 0.7 0
20.1 0.7 0
20.4 0.7 0
20.7 0.7 0
21 0.7 0
21.3 0.7 0
21.6 0.7 0
21.9 0.7 0
22.2 0.7 0
22.5 0.7 0
22.8 0.7 0
23.1 0.7 0
23.4 0.7 0
23.7 0.7 0
24 0.7 0
24.3 0.7 0
24.6 0.7 0
24.9 0.7 0
25.2 0.7 0
25.5 0.7 0
25.8 0.7 0
26.1 0.7 0
26.4 0.7 0
26.7 0.7 0
27 0.7 0
27.3 0.7 0
27.6 0.7 0
27.9 0.7 0
28.2 0.7 0
28.5 0.7 0
28.8 0.7 0
29.1 0.7 0
29.4 0.7 0
29.7 0.7 0
30 0.7 0
0 0.8 0
0.3 0.8 0
0.6 0.8 0
0.9 0.8 0
1.2 0.8 0
1.5 0.8 0
1.8 0.8 0
2.1 0.8 0
2.4 0.8 0
2.7 0.8 0
3 0.8 0
3.3 0.8 0
3.6 0.8 0
3.9 0.8 0
4.2 0.8 0
4.5 0.8 0
4.8 0.8 0
5.1 0.8 0
5.4 0.8 0
5.7 0.8 0
6 0.8 0
6.3 0.8 0
6.6 0.8 0
6.9 0.8 0
7.2 0.8 0
7.5 0.8 0
7.8 0.8 0
8.1 0.8 0
8.4 0.8 0
8.7 0.8 0
9 0.8 0
9.3 0.8 0
9.6 0.8 0
9.9 0.8 0
10.2 0.8 0
10.5 0.8 0
10.8 0.8 0
11.1 0.8 0
11.4 0.8 0
11.7 0.8 0
12 0.8 0
12.3 0.8 0
12.6 0.8 0
12.9 0.8 0
13.2 0.8 0
13.5 0.8 0
13.8 0.8 0
14.1 0.8 0
14.4 0.8 0
14.7 0.8 0
15 0.8 0
15.3 0.8 0
15.6 0.8 0
15.9 0.8 0
16.2 0.8 0
16.5 0.8 0
16.8 0.8 0
17.1 0.8 0
17.4 0.8 0
17.7 0.8 0
18 0.8 0
18.3 0.8 0
18.6 0.8 0
18.9 0.8 0
19.2 0.8 0
19.5 0.8 0
19.8 0.8 0
20.1 0.8 0
20.4 0.8 0
20.7 0.8 0
21 0.8 0
21.3 0.8 0
21.6 0.8 0
21.9 0.8 0
22.2 0.8 0
22.5 0.8 0
22.8 0.8 0
23.1 0.8 0
23.4 0.8 0
23.7 0.8 0
24 0.8 0
24.3 0.8 0
24.6 0.8 0
24.9 0.8 0
25.2 0.8 0
25.5 0.8 0
25.8 0.8 0
26.1 0.8 0
26.4 0.8 0
26.7 0.8 0
27 0.8 0
27.3 0.8 0
27.6 0.8 0
27.9 0.8 0
28.2 0.8 0
28.5 0.8 0
28.8 0.8 0
29.1 0.8 0
29.4 0.8 0
29.7 0.8 0
30 0.8 0
0 0.9 0
0.3 0.9 0
0.6 0.9 0
0.9 0.9 0
1.2 0.9 0
1.5 0.9 0
1.8 0.9 0
2.1 0.9 0
2.4 0.9 0
2.7 0.9 0
3 0.9 0
3.3 0.9 0
3.6 0.9 0
3.9 0.9 0
4.2 0.9 0
4.5 0.9 0
4.8 0.9 0
5.1 0.9 0
5.4 0.9 0
5.7 0.9 0
6 0.9 0
6.3 0.9 0
6.6 0.9 0
6.9 0.9 0
7.2 0.9 0
7.5 0.9 0
7.8 0.9 0
8.1 0.9 0
8.4 0.9 0
8.7 0.9 0
9 0.9 0
9.3 0.9 0
9.6 0.9 0
9.9 0.9 0
10.2 0.9 0
10.5 0.9 0
10.8 0.9 0
11.1 0.9 0
11.4 0.9 0
11.7 0.9 0
12 0.9 0
12.3 0.9 0
12.6 0.9 0
12.9 0.9 0
13.2 0.9 0
13.5 0.9 0
13.8 0.9 0
14.1 0.9 0
14.4 0.9 0
14.7 0.9 0
15 0.9 0
15.3 0.9 0
15.6 0.9 0
15.9 0.9 0
16.2 0.9 0
16.5 0.9 0
16.8 0.9 0
17.1 0.9 0
17.4 0.9 0
17.7 0.9 0
18 0.9 0
18.3 0.9 0
18.6 0.9 0
18.9 0.9 0
19.2 0.9 0
19.5 0.9 0
19.8 0.9 0
20.1 0.9 0
20.4 0.9 0
20.7 0.9 0
21 0.9 0
21.3 0.9 0
21.6 0.9 0
21.9 0.9 0
22.2 0.9 0
22.5 0.9 0
22.8 0.9 0
23.1 0.9 0
23.4 0.9 0
23.7 0.9 0
24 0.9 0
24.3 0.9 0
24.6 0.9 0
24.9 0.9 0
25.2 0.9 0
25.5 0.9 0
25.8 0.9 0
26.1 0.9 0
26.4 0.9 0
26.7 0.9 0
27 0.9 0
27.3 0.9 0
27.6 0.9 0
27.9 0.9 0
28.2 0.9 0
28.5 0.9 0
28.8 0.9 0
29.1 0.9 0
29.4 0.9 0
29.7 0.9 0
30 0.9 0
0 1 0
0.3 1 0
0.6 1 0
0.9 1 0
1.2 1 0
1.5 1 0
1.8 1 0
2.1 1 0
2.4 1 0
2.7 1 0
3 1 0
3.3 1 0
3.6 1 0
3.9 1 0
4.2 1 0
4.5 1 0
4.8 1 0
5.1 1 0
5.4 1 0
5.7 1 0
6 1 0
6.3 1 0
6.6 1 0
6.9 1 0
7.2 1 0
7.5 1 0
7.8 1 0
8.1 1 0
8.4 1 0
8.7 1 0
9 1 0
9.3 1 0
9.6 1 0
9.9 1 0
10.2 1 0
10.5 1 0
10.8 1 0
11.1 1 0
11.4 1 0
11.7 1 0
12 1 0
12.3 1 0
12.6 1 0
12.9 1 0
13.2 1 0
13.5 1 0
13.8 1 0
14.1 1 0
14.4 1 0
14.7 1 0
15 1 0
15.3 1 0
15.6 1 0
15.9 1 0
16.2 1 0
16.5 1 0
16.8 1 0
17.1 1 0
17.4 1 0
17.7 1 0
18 1 0
18.3 1 0
18.6 1 0
18.9 1 0
19.2 1 0
19.5 1 0
19.8 1 0
20.1 1 0
20.4 1 0
20.7 1 0
21 1 0
21.3 1 0
21.6 1 0
21.9 1 0
22.2 1 0
22.5 1 0
22.8 1 0
23.1 1 0
23.4 1 0
23.7 1 0
24 1 0
24.3 1 0
24.6 1 0
24.9 1 0
25.2 1 0
25.5 1 0
25.8 1 0
26.1 1 0
26.4 1 0
26.7 1 0
27 1 0
27.3 1 0
27.6 1 0
27.9 1 0
28.2 1 0
28.5 1 0
28.8 1 0
29.1 1 0
29.4 1 0
29.7 1 0
30 1 0

POINT_DATA 1111

SCALARS p double
LOOKUP_TABLE default
1.51375
1.51375
1.44502
1.39432
1.34749
1.30404
1.26438
1.2285
1.19602
1.16643
1.1392
1.11386
1.09001
1.06736
1.04568
1.0248
1.00457
0.984907
0.965725
0.946965
0.928576
0.910519
0.89276
0.875269
0.858021
0.840994
0.824169
0.80753
0.791062
0.774753
0.758593
0.742574
0.726689
0.710932
0.695297
0.679778
0.664369
0.649062
0.633849
0.618719
0.603664
0.588672
0.573734
0.558839
0.543979
0.529147
0.514335
0.499539
0.484753
0.469976
0.455204
0.440436
0.425671
0.410907
0.396143
0.381381
0.366619
0.351857
0.337095
0.322333
0.307572
0.29281
0.278048
0.263286
0.248525
0.233763
0.219001
0.20424
0.189478
0.174716
0.159955
0.145193
0.130431
0.115669
0.100908
0.0861461
0.0713844
0.0566227
0.041861
0.0270993
0.0123376
-0.00242407
-0.0171858
-0.0319474
-0.0467091
-0.0614708
-0.0762325
-0.0909942
-0.105756
-0.120518
-0.135279
-0.150041
-0.164803
-0.179564
-0.194326
-0.209088
-0.223849
-0.238611
-0.253372
-0.268126
0.268126
1.51375
1.51375
1.44502
1.39432
1.34749
1.30404
1.26438
1.2285
1.19602
1.16643
1.1392
1.11386
1.09001
1.06736
1.04568
1.0248
1.00457
0.984907
0.965725
0.946965
0.928576
0.910519
0.89276
0.875269
0.858021
0.840994
0.824169
0.80753
0.791062
0.774753
0.758593
0.742574
0.726689
0.710932
0.695297
0.679778
0.664369
0.649062
0.633849
0.618719
0.603664
0.588672
0.573734
0.558839
0.543979
0.529147
0.514335
0.499539
0.484753
0.469976
0.455204
0.440436
0.425671
0.410907
0.396143
0.381381
0.366619
0.351857
0.337095
0.322333
0.307572
0.29281
0.278048
0.263286
0.248525
0.233763
0.219001
0.20424
0.189478
0.174716
0.159955
0.145193
0.130431
0.115669
0.100908
0.0861461
0.0713844
0.0566227
0.041861
0.0270993
0.0123376
-0.00242407
-0.0171858
-0.0319474
-0.0467091
-0.0614708
-0.0762325
-0.0909942
-0.105756
-0.120518
-0.135279
-0.150041
-0.164803
-0.179564
-0.194326
-0.209088
-0.223849
-0.238611
-0.253372
-0.268126
0.268126
1.49349
1.49349
1.44345
1.39472
1.34821
1.30478
1.26504
1.22904
1.19645
1.16677
1.13946
1.11406
1.09017
1.06749
1.04579
1.02488
1.00464
0.984967
0.965777
0.94701
0.928616
0.910555
0.892791
0.875297
0.858046
0.841017
0.82419
0.807549
0.791079
0.774768
0.758607
0.742586
0.726699
0.71094
0.695303
0.679783
0.664373
0.649065
0.63385
0.61872
0.603664
0.588672
0.573734
0.558839
0.543979
0.529146
0.514335
0.499538
0.484753
0.469976
0.455204
0.440436
0.425671
0.410907
0.396143
0.381381
0.366619
0.351857
0.337095
0.322333
0.307572
0.29281
0.278048
0.263286
0.248525
0.233763
0.219001
0.20424
0.189478
0.174716
0.159955
0.145193
0.130431
0.115669
0.100908
0.0861461
0.0713844
0.0566227
0.041861
0.0270993
0.0123376
-0.00242407
-0.0171858
-0.0319474
-0.0467091
-0.0614708
-0.0762325
-0.0909942
-0.105756
-0.120518
-0.135279
-0.150041
-0.164803
-0.179564
-0.194326
-0.209088
-0.223849
-0.238611
-0.253372
-0.268125
0.268125
1.47989
1.47989
1.44138
1.39526
1.34933
1.30596
1.2661
1.22993
1.19716
1.16731
1.13988
1.11437
1.09041
1.06767
1.04593
1.02499
1.00473
0.985039
0.965837
0.94706
0.928659
0.910592
0.892824
0.875325
0.858071
0.841039
0.82421
0.807567
0.791095
0.774783
0.75862
0.742597
0.726709
0.710949
0.695311
0.679789
0.664378
0.649069
0.633854
0.618723
0.603666
0.588673
0.573734
0.558839
0.543979
0.529146
0.514335
0.499538
0.484753
0.469976
0.455204
0.440436
0.425671
0.410907
0.396143
0.381381
0.366619
0.351857
0.337095
0.322333
0.307572
0.29281
0.278048
0.263286
0.248525
0.233763
0.219001
0.20424
0.189478
0.174716
0.159955
0.145193
0.130431
0.115669
0.100908
0.0861461
0.0713844
0.0566227
0.041861
0.0270993
0.0123376
-0.00242407
-0.0171858
-0.0319474
-0.0467091
-0.0614708
-0.0762325
-0.0909942
-0.105756
-0.120518
-0.135279
-0.150041
-0.164803
-0.179564
-0.194326
-0.209087
-0.223849
-0.23861
-0.253369
-0.268123
0.268123
1.47239
1.47239
1.4399
1.39563
1.35017
1.30688
1.26695
1.23066
1.19775
1.16778
1.14024
1.11466
1.09063
1.06785
1.04607
1.0251
1.00482
0.985116
0.965901
0.947115
0.928707
0.910633
0.89286
0.875357
0.8581
0.841065
0.824233
0.807587
0.791114
0.7748
0.758635
0.742612
0.726722
0.710961
0.695322
0.679799
0.664387
0.649077
0.63386
0.618729
0.603671
0.588677
0.573737
0.558842
0.543981
0.529148
0.514336
0.499539
0.484754
0.469976
0.455204
0.440436
0.425671
0.410907
0.396143
0.381381
0.366619
0.351857
0.337095
0.322333
0.307572
0.29281
0.278048
0.263286
0.248525
0.233763
0.219001
0.20424
0.189478
0.174716
0.159955
0.145193
0.130431
0.115669
0.100908
0.0861461
0.0713844
0.0566227
0.041861
0.0270993
0.0123376
-0.00242407
-0.0171858
-0.0319474
-0.0467091
-0.0614708
-0.0762325
-0.0909942
-0.105756
-0.120518
-0.135279
-0.150041
-0.164803
-0.179564
-0.194326
-0.209087
-0.223849
-0.238609
-0.253363
-0.268121
0.268121
1.47001
1.47001
1.43939
1.39578
1.35049
1.30723
1.26728
1.23094
1.19798
1.16797
1.14039
1.11477
1.09072
1.06792
1.04612
1.02515
1.00486
0.98515
0.965931
0.947141
0.928729
0.910653
0.892877
0.875373
0.858113
0.841077
0.824244
0.807597
0.791123
0.774808
0.758643
0.742619
0.726729
0.710967
0.695328
0.679805
0.664392
0.649081
0.633864
0.618732
0.603674
0.58868
0.573739
0.558843
0.543982
0.529149
0.514336
0.499539
0.484754
0.469976
0.455205
0.440436
0.425671
0.410907
0.396143
0.381381
0.366619
0.351857
0.337095
0.322333
0.307572
0.29281
0.278048
0.263286
0.248525
0.233763
0.219001
0.20424
0.189478
0.174716
0.159955
0.145193
0.130431
0.115669
0.100908
0.0861461
0.0713844
0.0566227
0.041861
0.0270993
0.0123376
-0.00242407
-0.0171857
-0.0319474
-0.0467091
-0.0614708
-0.0762325
-0.0909942
-0.105756
-0.120518
-0.135279
-0.150041
-0.164803
-0.179564
-0.194326
-0.209087
-0.223849
-0.238609
-0.253361
-0.26812
0.26812
1.47239
1.47239
1.4399
1.39563
1.35017
1.30688
1.26695
1.23066
1.19775
1.16778
1.14024
1.11466
1.09063
1.06785
1.04607
1.0251
1.00482
0.985116
0.965901
0.947115
0.928707
0.910633
0.89286
0.875357
0.8581
0.841065
0.824233
0.807587
0.791114
0.7748
0.758635
0.742612
0.726722
0.710961
0.695322
0.679799
0.664387
0.649077
0.63386
0.618729
0.603671
0.588677
0.573737
0.558842
0.543981
0.529148
0.514336
0.499539
0.484754
0.469976
0.455204
0.440436
0.425671
0.410907
0.396143
0.381381
0.366619
0.351857
0.337095
0.322333
0.307572
0.29281
0.278048
0.263286
0.248525
0.233763
0.219001
0.20424
0.189478
0.174716
0.159955
0.145193
0.130431
0.115669
0.100908
0.0861461
0.0713844
0.0566227
0.041861
0.0270993
0.0123376
-0.00242407
-0.0171857
-0.0319474
-0.0467091
-0.0614708
-0.0762325
-0.0909942
-0.105756
-0.120518
-0.135279
-0.150041
-0.164803
-0.179564
-0.194326
-0.209087
-0.223849
-0.238609
-0.253363
-0.268121
0.268121
1.47989
1.47989
1.44138
1.39526
1.34933
1.30596
1.2661
1.22993
1.19716
1.16731
1.13988
1.11437
1.09041
1.06767
1.04593
1.02499
1.00473
0.985039
0.965837
0.94706
0.928659
0.910592
0.892824
0.875325
0.858071
0.841039
0.82421
0.807567
0.791095
0.774783
0.75862
0.742597
0.726709
0.710949
0.695311
0.679789
0.664378
0.649069
0.633854
0.618723
0.603666
0.588673
0.573734
0.558839
0.543979
0.529146
0.514335
0.499538
0.484753
0.469976
0.455204
0.440436
0.425671
0.410907
0.396143
0.381381
0.366619
0.351857
0.337095
0.322333
0.307572
0.29281
0.278048
0.263286
0.248525
0.233763
0.219001
0.20424
0.189478
0.174716
0.159955
0.145193
0.130431
0.115669
0.100908
0.0861461
0.0713844
0.0566227
0.041861
0.0270993
0.0123376
-0.00242407
-0.0171857
-0.0319474
-0.0467091
-0.0614708
-0.0762325
-0.0909942
-0.105756
-0.120518
-0.135279
-0.150041
-0.164803
-0.179564
-0.194326
-0.209087
-0.223849
-0.23861
-0.253369
-0.268123
0.268123
1.49349
1.49349
1.44345
1.39472
1.34821
1.30478
1.26504
1.22904
1.19645
1.16677
1.13946
1.11406
1.09017
1.06749
1.04579
1.02488
1.00464
0.984967
0.965777
0.94701
0.928616
0.910555
0.892791
0.875297
0.858046
0.841017
0.82419
0.807549
0.791079
0.774768
0.758607
0.742586
0.726699
0.71094
0.695303
0.679783
0.664373
0.649065
0.63385
0.61872
0.603664
0.588672
0.573734
0.558839
0.543979
0.529146
0.514335
0.499538
0.484753
0.469976
0.455204
0.440436
0.425671
0.410907
0.396143
0.381381
0.366619
0.351857
0.337095
0.322333
0.307572
0.29281
0.278048
0.263286
0.248525
0.233763
0.219001
0.20424
0.189478
0.174716
0.159955
0.145193
0.130431
0.115669
0.100908
0.0861461
0.0713844
0.0566227
0.041861
0.0270993
0.0123376
-0.00242406
-0.0171857
-0.0319474
-0.0467091
-0.0614708
-0.0762325
-0.0909942
-0.105756
-0.120518
-0.135279
-0.150041
-0.164803
-0.179564
-0.194326
-0.209088
-0.223849
-0.238611
-0.253372
-0.268125
0.268125
1.51375
1.51375
1.44502
1.39432
1.34749
1.30404
1.26438
1.2285
1.19602
1.16643
1.1392
1.11386
1.09001
1.06736
1.04568
1.0248
1.00457
0.984907
0.965725
0.946965
0.928576
0.910519
0.89276
0.875269
0.858021
0.840994
0.824169
0.80753
0.791062
0.774753
0.758593
0.742574
0.726689
0.710932
0.695297
0.679778
0.664369
0.649062
0.633849
0.618719
0.603664
0.588672
0.573734
0.558839
0.543979
0.529147
0.514335
0.499538
0.484753
0.469976
0.455204
0.440436
0.425671
0.410907
0.396143
0.381381
0.366619
0.351857
0.337095
0.322333
0.307572
0.29281
0.278048
0.263286
0.248525
0.233763
0.219001
0.20424
0.189478
0.174716
0.159955
0.145193
0.130431
0.115669
0.100908
0.0861461
0.0713844
0.0566227
0.041861
0.0270993
0.0123376
-0.00242407
-0.0171857
-0.0319474
-0.0467091
-0.0614708
-0.0762325
-0.0909942
-0.105756
-0.120518
-0.135279
-0.150041
-0.164803
-0.179564
-0.194326
-0.209088
-0.223849
-0.238611
-0.253372
-0.268126
0.268126
1.51375
1.51375
1.44502
1.39432
1.34749
1.30404
1.26438
1.2285
1.19602
1.16643
1.1392
1.11386
1.09001
1.06736
1.04568
1.0248
1.00457
0.984907
0.965725
0.946965
0.928576
0.910519
0.89276
0.875269
0.858021
0.840994
0.824169
0.80753
0.791062
0.774753
0.758593
0.742574
0.726689
0.710932
0.695297
0.679778
0.664369
0.649062
0.633849
0.618719
0.603664
0.588672
0.573734
0.558839
0.543979
0.529147
0.514335
0.499538
0.484753
0.469976
0.455204
0.440436
0.425671
0.410907
0.396143
0.381381
0.366619
0.351857
0.337095
0.322333
0.307572
0.29281
0.278048
0.263286
0.248525
0.233763
0.219001
0.20424
0.189478
0.174716
0.159955
0.145193
0.130431
0.115669
0.100908
0.0861461
0.0713844
0.0566227
0.041861
0.0270993
0.0123376
-0.00242407
-0.0171857
-0.0319474
-0.0467091
-0.0614708
-0.0762325
-0.0909942
-0.105756
-0.120518
-0.135279
-0.150041
-0.164803
-0.179564
-0.194326
-0.209088
-0.223849
-0.238611
-0.253372
-0.268126
0.268126
