# vtk DataFile Version 2.0
FlowField
ASCII
DATASET STRUCTURED_GRID
DIMENSIONS 102 1 12 
POINTS 1224 double
0 0 0
0.4 0 0
0.8 0 0
1.2 0 0
1.6 0 0
2 0 0
2.4 0 0
2.8 0 0
3.2 0 0
3.6 0 0
4 0 0
4.4 0 0
4.8 0 0
5.2 0 0
5.6 0 0
6 0 0
6.4 0 0
6.8 0 0
7.2 0 0
7.6 0 0
8 0 0
8.4 0 0
8.8 0 0
9.2 0 0
9.6 0 0
10 0 0
10.4 0 0
10.8 0 0
11.2 0 0
11.6 0 0
12 0 0
12.4 0 0
12.8 0 0
13.2 0 0
13.6 0 0
14 0 0
14.4 0 0
14.8 0 0
15.2 0 0
15.6 0 0
16 0 0
16.4 0 0
16.8 0 0
17.2 0 0
17.6 0 0
18 0 0
18.4 0 0
18.8 0 0
19.2 0 0
19.6 0 0
20 0 0
20.4 0 0
20.8 0 0
21.2 0 0
21.6 0 0
22 0 0
22.4 0 0
22.8 0 0
23.2 0 0
23.6 0 0
24 0 0
24.4 0 0
24.8 0 0
25.2 0 0
25.6 0 0
26 0 0
26.4 0 0
26.8 0 0
27.2 0 0
27.6 0 0
28 0 0
28.4 0 0
28.8 0 0
29.2 0 0
29.6 0 0
30 0 0
30.4 0 0
30.8 0 0
31.2 0 0
31.6 0 0
32 0 0
32.4 0 0
32.8 0 0
33.2 0 0
33.6 0 0
34 0 0
34.4 0 0
34.8 0 0
35.2 0 0
35.6 0 0
36 0 0
36.4 0 0
36.8 0 0
37.2 0 0
37.6 0 0
38 0 0
38.4 0 0
38.8 0 0
39.2 0 0
39.6 0 0
40 0 0
40.4 0 0
0 0.1 0
0.4 0.1 0
0.8 0.1 0
1.2 0.1 0
1.6 0.1 0
2 0.1 0
2.4 0.1 0
2.8 0.1 0
3.2 0.1 0
3.6 0.1 0
4 0.1 0
4.4 0.1 0
4.8 0.1 0
5.2 0.1 0
5.6 0.1 0
6 0.1 0
6.4 0.1 0
6.8 0.1 0
7.2 0.1 0
7.6 0.1 0
8 0.1 0
8.4 0.1 0
8.8 0.1 0
9.2 0.1 0
9.6 0.1 0
10 0.1 0
10.4 0.1 0
10.8 0.1 0
11.2 0.1 0
11.6 0.1 0
12 0.1 0
12.4 0.1 0
12.8 0.1 0
13.2 0.1 0
13.6 0.1 0
14 0.1 0
14.4 0.1 0
14.8 0.1 0
15.2 0.1 0
15.6 0.1 0
16 0.1 0
16.4 0.1 0
16.8 0.1 0
17.2 0.1 0
17.6 0.1 0
18 0.1 0
18.4 0.1 0
18.8 0.1 0
19.2 0.1 0
19.6 0.1 0
20 0.1 0
20.4 0.1 0
20.8 0.1 0
21.2 0.1 0
21.6 0.1 0
22 0.1 0
22.4 0.1 0
22.8 0.1 0
23.2 0.1 0
23.6 0.1 0
24 0.1 0
24.4 0.1 0
24.8 0.1 0
25.2 0.1 0
25.6 0.1 0
26 0.1 0
26.4 0.1 0
26.8 0.1 0
27.2 0.1 0
27.6 0.1 0
28 0.1 0
28.4 0.1 0
28.8 0.1 0
29.2 0.1 0
29.6 0.1 0
30 0.1 0
30.4 0.1 0
30.8 0.1 0
31.2 0.1 0
31.6 0.1 0
32 0.1 0
32.4 0.1 0
32.8 0.1 0
33.2 0.1 0
33.6 0.1 0
34 0.1 0
34.4 0.1 0
34.8 0.1 0
35.2 0.1 0
35.6 0.1 0
36 0.1 0
36.4 0.1 0
36.8 0.1 0
37.2 0.1 0
37.6 0.1 0
38 0.1 0
38.4 0.1 0
38.8 0.1 0
39.2 0.1 0
39.6 0.1 0
40 0.1 0
40.4 0.1 0
0 0.2 0
0.4 0.2 0
0.8 0.2 0
1.2 0.2 0
1.6 0.2 0
2 0.2 0
2.4 0.2 0
2.8 0.2 0
3.2 0.2 0
3.6 0.2 0
4 0.2 0
4.4 0.2 0
4.8 0.2 0
5.2 0.2 0
5.6 0.2 0
6 0.2 0
6.4 0.2 0
6.8 0.2 0
7.2 0.2 0
7.6 0.2 0
8 0.2 0
8.4 0.2 0
8.8 0.2 0
9.2 0.2 0
9.6 0.2 0
10 0.2 0
10.4 0.2 0
10.8 0.2 0
11.2 0.2 0
11.6 0.2 0
12 0.2 0
12.4 0.2 0
12.8 0.2 0
13.2 0.2 0
13.6 0.2 0
14 0.2 0
14.4 0.2 0
14.8 0.2 0
15.2 0.2 0
15.6 0.2 0
16 0.2 0
16.4 0.2 0
16.8 0.2 0
17.2 0.2 0
17.6 0.2 0
18 0.2 0
18.4 0.2 0
18.8 0.2 0
19.2 0.2 0
19.6 0.2 0
20 0.2 0
20.4 0.2 0
20.8 0.2 0
21.2 0.2 0
21.6 0.2 0
22 0.2 0
22.4 0.2 0
22.8 0.2 0
23.2 0.2 0
23.6 0.2 0
24 0.2 0
24.4 0.2 0
24.8 0.2 0
25.2 0.2 0
25.6 0.2 0
26 0.2 0
26.4 0.2 0
26.8 0.2 0
27.2 0.2 0
27.6 0.2 0
28 0.2 0
28.4 0.2 0
28.8 0.2 0
29.2 0.2 0
29.6 0.2 0
30 0.2 0
30.4 0.2 0
30.8 0.2 0
31.2 0.2 0
31.6 0.2 0
32 0.2 0
32.4 0.2 0
32.8 0.2 0
33.2 0.2 0
33.6 0.2 0
34 0.2 0
34.4 0.2 0
34.8 0.2 0
35.2 0.2 0
35.6 0.2 0
36 0.2 0
36.4 0.2 0
36.8 0.2 0
37.2 0.2 0
37.6 0.2 0
38 0.2 0
38.4 0.2 0
38.8 0.2 0
39.2 0.2 0
39.6 0.2 0
40 0.2 0
40.4 0.2 0
0 0.3 0
0.4 0.3 0
0.8 0.3 0
1.2 0.3 0
1.6 0.3 0
2 0.3 0
2.4 0.3 0
2.8 0.3 0
3.2 0.3 0
3.6 0.3 0
4 0.3 0
4.4 0.3 0
4.8 0.3 0
5.2 0.3 0
5.6 0.3 0
6 0.3 0
6.4 0.3 0
6.8 0.3 0
7.2 0.3 0
7.6 0.3 0
8 0.3 0
8.4 0.3 0
8.8 0.3 0
9.2 0.3 0
9.6 0.3 0
10 0.3 0
10.4 0.3 0
10.8 0.3 0
11.2 0.3 0
11.6 0.3 0
12 0.3 0
12.4 0.3 0
12.8 0.3 0
13.2 0.3 0
13.6 0.3 0
14 0.3 0
14.4 0.3 0
14.8 0.3 0
15.2 0.3 0
15.6 0.3 0
16 0.3 0
16.4 0.3 0
16.8 0.3 0
17.2 0.3 0
17.6 0.3 0
18 0.3 0
18.4 0.3 0
18.8 0.3 0
19.2 0.3 0
19.6 0.3 0
20 0.3 0
20.4 0.3 0
20.8 0.3 0
21.2 0.3 0
21.6 0.3 0
22 0.3 0
22.4 0.3 0
22.8 0.3 0
23.2 0.3 0
23.6 0.3 0
24 0.3 0
24.4 0.3 0
24.8 0.3 0
25.2 0.3 0
25.6 0.3 0
26 0.3 0
26.4 0.3 0
26.8 0.3 0
27.2 0.3 0
27.6 0.3 0
28 0.3 0
28.4 0.3 0
28.8 0.3 0
29.2 0.3 0
29.6 0.3 0
30 0.3 0
30.4 0.3 0
30.8 0.3 0
31.2 0.3 0
31.6 0.3 0
32 0.3 0
32.4 0.3 0
32.8 0.3 0
33.2 0.3 0
33.6 0.3 0
34 0.3 0
34.4 0.3 0
34.8 0.3 0
35.2 0.3 0
35.6 0.3 0
36 0.3 0
36.4 0.3 0
36.8 0.3 0
37.2 0.3 0
37.6 0.3 0
38 0.3 0
38.4 0.3 0
38.8 0.3 0
39.2 0.3 0
39.6 0.3 0
40 0.3 0
40.4 0.3 0
0 0.4 0
0.4 0.4 0
0.8 0.4 0
1.2 0.4 0
1.6 0.4 0
2 0.4 0
2.4 0.4 0
2.8 0.4 0
3.2 0.4 0
3.6 0.4 0
4 0.4 0
4.4 0.4 0
4.8 0.4 0
5.2 0.4 0
5.6 0.4 0
6 0.4 0
6.4 0.4 0
6.8 0.4 0
7.2 0.4 0
7.6 0.4 0
8 0.4 0
8.4 0.4 0
8.8 0.4 0
9.2 0.4 0
9.6 0.4 0
10 0.4 0
10.4 0.4 0
10.8 0.4 0
11.2 0.4 0
11.6 0.4 0
12 0.4 0
12.4 0.4 0
12.8 0.4 0
13.2 0.4 0
13.6 0.4 0
14 0.4 0
14.4 0.4 0
14.8 0.4 0
15.2 0.4 0
15.6 0.4 0
16 0.4 0
16.4 0.4 0
16.8 0.4 0
17.2 0.4 0
17.6 0.4 0
18 0.4 0
18.4 0.4 0
18.8 0.4 0
19.2 0.4 0
19.6 0.4 0
20 0.4 0
20.4 0.4 0
20.8 0.4 0
21.2 0.4 0
21.6 0.4 0
22 0.4 0
22.4 0.4 0
22.8 0.4 0
23.2 0.4 0
23.6 0.4 0
24 0.4 0
24.4 0.4 0
24.8 0.4 0
25.2 0.4 0
25.6 0.4 0
26 0.4 0
26.4 0.4 0
26.8 0.4 0
27.2 0.4 0
27.6 0.4 0
28 0.4 0
28.4 0.4 0
28.8 0.4 0
29.2 0.4 0
29.6 0.4 0
30 0.4 0
30.4 0.4 0
30.8 0.4 0
31.2 0.4 0
31.6 0.4 0
32 0.4 0
32.4 0.4 0
32.8 0.4 0
33.2 0.4 0
33.6 0.4 0
34 0.4 0
34.4 0.4 0
34.8 0.4 0
35.2 0.4 0
35.6 0.4 0
36 0.4 0
36.4 0.4 0
36.8 0.4 0
37.2 0.4 0
37.6 0.4 0
38 0.4 0
38.4 0.4 0
38.8 0.4 0
39.2 0.4 0
39.6 0.4 0
40 0.4 0
40.4 0.4 0
0 0.5 0
0.4 0.5 0
0.8 0.5 0
1.2 0.5 0
1.6 0.5 0
2 0.5 0
2.4 0.5 0
2.8 0.5 0
3.2 0.5 0
3.6 0.5 0
4 0.5 0
4.4 0.5 0
4.8 0.5 0
5.2 0.5 0
5.6 0.5 0
6 0.5 0
6.4 0.5 0
6.8 0.5 0
7.2 0.5 0
7.6 0.5 0
8 0.5 0
8.4 0.5 0
8.8 0.5 0
9.2 0.5 0
9.6 0.5 0
10 0.5 0
10.4 0.5 0
10.8 0.5 0
11.2 0.5 0
11.6 0.5 0
12 0.5 0
12.4 0.5 0
12.8 0.5 0
13.2 0.5 0
13.6 0.5 0
14 0.5 0
14.4 0.5 0
14.8 0.5 0
15.2 0.5 0
15.6 0.5 0
16 0.5 0
16.4 0.5 0
16.8 0.5 0
17.2 0.5 0
17.6 0.5 0
18 0.5 0
18.4 0.5 0
18.8 0.5 0
19.2 0.5 0
19.6 0.5 0
20 0.5 0
20.4 0.5 0
20.8 0.5 0
21.2 0.5 0
21.6 0.5 0
22 0.5 0
22.4 0.5 0
22.8 0.5 0
23.2 0.5 0
23.6 0.5 0
24 0.5 0
24.4 0.5 0
24.8 0.5 0
25.2 0.5 0
25.6 0.5 0
26 0.5 0
26.4 0.5 0
26.8 0.5 0
27.2 0.5 0
27.6 0.5 0
28 0.5 0
28.4 0.5 0
28.8 0.5 0
29.2 0.5 0
29.6 0.5 0
30 0.5 0
30.4 0.5 0
30.8 0.5 0
31.2 0.5 0
31.6 0.5 0
32 0.5 0
32.4 0.5 0
32.8 0.5 0
33.2 0.5 0
33.6 0.5 0
34 0.5 0
34.4 0.5 0
34.8 0.5 0
35.2 0.5 0
35.6 0.5 0
36 0.5 0
36.4 0.5 0
36.8 0.5 0
37.2 0.5 0
37.6 0.5 0
38 0.5 0
38.4 0.5 0
38.8 0.5 0
39.2 0.5 0
39.6 0.5 0
40 0.5 0
40.4 0.5 0
0 0.6 0
0.4 0.6 0
0.8 0.6 0
1.2 0.6 0
1.6 0.6 0
2 0.6 0
2.4 0.6 0
2.8 0.6 0
3.2 0.6 0
3.6 0.6 0
4 0.6 0
4.4 0.6 0
4.8 0.6 0
5.2 0.6 0
5.6 0.6 0
6 0.6 0
6.4 0.6 0
6.8 0.6 0
7.2 0.6 0
7.6 0.6 0
8 0.6 0
8.4 0.6 0
8.8 0.6 0
9.2 0.6 0
9.6 0.6 0
10 0.6 0
10.4 0.6 0
10.8 0.6 0
11.2 0.6 0
11.6 0.6 0
12 0.6 0
12.4 0.6 0
12.8 0.6 0
13.2 0.6 0
13.6 0.6 0
14 0.6 0
14.4 0.6 0
14.8 0.6 0
15.2 0.6 0
15.6 0.6 0
16 0.6 0
16.4 0.6 0
16.8 0.6 0
17.2 0.6 0
17.6 0.6 0
18 0.6 0
18.4 0.6 0
18.8 0.6 0
19.2 0.6 0
19.6 0.6 0
20 0.6 0
20.4 0.6 0
20.8 0.6 0
21.2 0.6 0
21.6 0.6 0
22 0.6 0
22.4 0.6 0
22.8 0.6 0
23.2 0.6 0
23.6 0.6 0
24 0.6 0
24.4 0.6 0
24.8 0.6 0
25.2 0.6 0
25.6 0.6 0
26 0.6 0
26.4 0.6 0
26.8 0.6 0
27.2 0.6 0
27.6 0.6 0
28 0.6 0
28.4 0.6 0
28.8 0.6 0
29.2 0.6 0
29.6 0.6 0
30 0.6 0
30.4 0.6 0
30.8 0.6 0
31.2 0.6 0
31.6 0.6 0
32 0.6 0
32.4 0.6 0
32.8 0.6 0
33.2 0.6 0
33.6 0.6 0
34 0.6 0
34.4 0.6 0
34.8 0.6 0
35.2 0.6 0
35.6 0.6 0
36 0.6 0
36.4 0.6 0
36.8 0.6 0
37.2 0.6 0
37.6 0.6 0
38 0.6 0
38.4 0.6 0
38.8 0.6 0
39.2 0.6 0
39.6 0.6 0
40 0.6 0
40.4 0.6 0
0 0.7 0
0.4 0.7 0
0.8 0.7 0
1.2 0.7 0
1.6 0.7 0
2 0.7 0
2.4 0.7 0
2.8 0.7 0
3.2 0.7 0
3.6 0.7 0
4 0.7 0
4.4 0.7 0
4.8 0.7 0
5.2 0.7 0
5.6 0.7 0
6 0.7 0
6.4 0.7 0
6.8 0.7 0
7.2 0.7 0
7.6 0.7 0
8 0.7 0
8.4 0.7 0
8.8 0.7 0
9.2 0.7 0
9.6 0.7 0
10 0.7 0
10.4 0.7 0
10.8 0.7 0
11.2 0.7 0
11.6 0.7 0
12 0.7 0
12.4 0.7 0
12.8 0.7 0
13.2 0.7 0
13.6 0.7 0
14 0.7 0
14.4 0.7 0
14.8 0.7 0
15.2 0.7 0
15.6 0.7 0
16 0.7 0
16.4 0.7 0
16.8 0.7 0
17.2 0.7 0
17.6 0.7 0
18 0.7 0
18.4 0.7 0
18.8 0.7 0
19.2 0.7 0
19.6 0.7 0
20 0.7 0
20.4 0.7 0
20.8 0.7 0
21.2 0.7 0
21.6 0.7 0
22 0.7 0
22.4 0.7 0
22.8 0.7 0
23.2 0.7 0
23.6 0.7 0
24 0.7 0
24.4 0.7 0
24.8 0.7 0
25.2 0.7 0
25.6 0.7 0
26 0.7 0
26.4 0.7 0
26.8 0.7 0
27.2 0.7 0
27.6 0.7 0
28 0.7 0
28.4 0.7 0
28.8 0.7 0
29.2 0.7 0
29.6 0.7 0
30 0.7 0
30.4 0.7 0
30.8 0.7 0
31.2 0.7 0
31.6 0.7 0
32 0.7 0
32.4 0.7 0
32.8 0.7 0
33.2 0.7 0
33.6 0.7 0
34 0.7 0
34.4 0.7 0
34.8 0.7 0
35.2 0.7 0
35.6 0.7 0
36 0.7 0
36.4 0.7 0
36.8 0.7 0
37.2 0.7 0
37.6 0.7 0
38 0.7 0
38.4 0.7 0
38.8 0.7 0
39.2 0.7 0
39.6 0.7 0
40 0.7 0
40.4 0.7 0
0 0.8 0
0.4 0.8 0
0.8 0.8 0
1.2 0.8 0
1.6 0.8 0
2 0.8 0
2.4 0.8 0
2.8 0.8 0
3.2 0.8 0
3.6 0.8 0
4 0.8 0
4.4 0.8 0
4.8 0.8 0
5.2 0.8 0
5.6 0.8 0
6 0.8 0
6.4 0.8 0
6.8 0.8 0
7.2 0.8 0
7.6 0.8 0
8 0.8 0
8.4 0.8 0
8.8 0.8 0
9.2 0.8 0
9.6 0.8 0
10 0.8 0
10.4 0.8 0
10.8 0.8 0
11.2 0.8 0
11.6 0.8 0
12 0.8 0
12.4 0.8 0
12.8 0.8 0
13.2 0.8 0
13.6 0.8 0
14 0.8 0
14.4 0.8 0
14.8 0.8 0
15.2 0.8 0
15.6 0.8 0
16 0.8 0
16.4 0.8 0
16.8 0.8 0
17.2 0.8 0
17.6 0.8 0
18 0.8 0
18.4 0.8 0
18.8 0.8 0
19.2 0.8 0
19.6 0.8 0
20 0.8 0
20.4 0.8 0
20.8 0.8 0
21.2 0.8 0
21.6 0.8 0
22 0.8 0
22.4 0.8 0
22.8 0.8 0
23.2 0.8 0
23.6 0.8 0
24 0.8 0
24.4 0.8 0
24.8 0.8 0
25.2 0.8 0
25.6 0.8 0
26 0.8 0
26.4 0.8 0
26.8 0.8 0
27.2 0.8 0
27.6 0.8 0
28 0.8 0
28.4 0.8 0
28.8 0.8 0
29.2 0.8 0
29.6 0.8 0
30 0.8 0
30.4 0.8 0
30.8 0.8 0
31.2 0.8 0
31.6 0.8 0
32 0.8 0
32.4 0.8 0
32.8 0.8 0
33.2 0.8 0
33.6 0.8 0
34 0.8 0
34.4 0.8 0
34.8 0.8 0
35.2 0.8 0
35.6 0.8 0
36 0.8 0
36.4 0.8 0
36.8 0.8 0
37.2 0.8 0
37.6 0.8 0
38 0.8 0
38.4 0.8 0
38.8 0.8 0
39.2 0.8 0
39.6 0.8 0
40 0.8 0
40.4 0.8 0
0 0.9 0
0.4 0.9 0
0.8 0.9 0
1.2 0.9 0
1.6 0.9 0
2 0.9 0
2.4 0.9 0
2.8 0.9 0
3.2 0.9 0
3.6 0.9 0
4 0.9 0
4.4 0.9 0
4.8 0.9 0
5.2 0.9 0
5.6 0.9 0
6 0.9 0
6.4 0.9 0
6.8 0.9 0
7.2 0.9 0
7.6 0.9 0
8 0.9 0
8.4 0.9 0
8.8 0.9 0
9.2 0.9 0
9.6 0.9 0
10 0.9 0
10.4 0.9 0
10.8 0.9 0
11.2 0.9 0
11.6 0.9 0
12 0.9 0
12.4 0.9 0
12.8 0.9 0
13.2 0.9 0
13.6 0.9 0
14 0.9 0
14.4 0.9 0
14.8 0.9 0
15.2 0.9 0
15.6 0.9 0
16 0.9 0
16.4 0.9 0
16.8 0.9 0
17.2 0.9 0
17.6 0.9 0
18 0.9 0
18.4 0.9 0
18.8 0.9 0
19.2 0.9 0
19.6 0.9 0
20 0.9 0
20.4 0.9 0
20.8 0.9 0
21.2 0.9 0
21.6 0.9 0
22 0.9 0
22.4 0.9 0
22.8 0.9 0
23.2 0.9 0
23.6 0.9 0
24 0.9 0
24.4 0.9 0
24.8 0.9 0
25.2 0.9 0
25.6 0.9 0
26 0.9 0
26.4 0.9 0
26.8 0.9 0
27.2 0.9 0
27.6 0.9 0
28 0.9 0
28.4 0.9 0
28.8 0.9 0
29.2 0.9 0
29.6 0.9 0
30 0.9 0
30.4 0.9 0
30.8 0.9 0
31.2 0.9 0
31.6 0.9 0
32 0.9 0
32.4 0.9 0
32.8 0.9 0
33.2 0.9 0
33.6 0.9 0
34 0.9 0
34.4 0.9 0
34.8 0.9 0
35.2 0.9 0
35.6 0.9 0
36 0.9 0
36.4 0.9 0
36.8 0.9 0
37.2 0.9 0
37.6 0.9 0
38 0.9 0
38.4 0.9 0
38.8 0.9 0
39.2 0.9 0
39.6 0.9 0
40 0.9 0
40.4 0.9 0
0 1 0
0.4 1 0
0.8 1 0
1.2 1 0
1.6 1 0
2 1 0
2.4 1 0
2.8 1 0
3.2 1 0
3.6 1 0
4 1 0
4.4 1 0
4.8 1 0
5.2 1 0
5.6 1 0
6 1 0
6.4 1 0
6.8 1 0
7.2 1 0
7.6 1 0
8 1 0
8.4 1 0
8.8 1 0
9.2 1 0
9.6 1 0
10 1 0
10.4 1 0
10.8 1 0
11.2 1 0
11.6 1 0
12 1 0
12.4 1 0
12.8 1 0
13.2 1 0
13.6 1 0
14 1 0
14.4 1 0
14.8 1 0
15.2 1 0
15.6 1 0
16 1 0
16.4 1 0
16.8 1 0
17.2 1 0
17.6 1 0
18 1 0
18.4 1 0
18.8 1 0
19.2 1 0
19.6 1 0
20 1 0
20.4 1 0
20.8 1 0
21.2 1 0
21.6 1 0
22 1 0
22.4 1 0
22.8 1 0
23.2 1 0
23.6 1 0
24 1 0
24.4 1 0
24.8 1 0
25.2 1 0
25.6 1 0
26 1 0
26.4 1 0
26.8 1 0
27.2 1 0
27.6 1 0
28 1 0
28.4 1 0
28.8 1 0
29.2 1 0
29.6 1 0
30 1 0
30.4 1 0
30.8 1 0
31.2 1 0
31.6 1 0
32 1 0
32.4 1 0
32.8 1 0
33.2 1 0
33.6 1 0
34 1 0
34.4 1 0
34.8 1 0
35.2 1 0
35.6 1 0
36 1 0
36.4 1 0
36.8 1 0
37.2 1 0
37.6 1 0
38 1 0
38.4 1 0
38.8 1 0
39.2 1 0
39.6 1 0
40 1 0
40.4 1 0
0 1.1 0
0.4 1.1 0
0.8 1.1 0
1.2 1.1 0
1.6 1.1 0
2 1.1 0
2.4 1.1 0
2.8 1.1 0
3.2 1.1 0
3.6 1.1 0
4 1.1 0
4.4 1.1 0
4.8 1.1 0
5.2 1.1 0
5.6 1.1 0
6 1.1 0
6.4 1.1 0
6.8 1.1 0
7.2 1.1 0
7.6 1.1 0
8 1.1 0
8.4 1.1 0
8.8 1.1 0
9.2 1.1 0
9.6 1.1 0
10 1.1 0
10.4 1.1 0
10.8 1.1 0
11.2 1.1 0
11.6 1.1 0
12 1.1 0
12.4 1.1 0
12.8 1.1 0
13.2 1.1 0
13.6 1.1 0
14 1.1 0
14.4 1.1 0
14.8 1.1 0
15.2 1.1 0
15.6 1.1 0
16 1.1 0
16.4 1.1 0
16.8 1.1 0
17.2 1.1 0
17.6 1.1 0
18 1.1 0
18.4 1.1 0
18.8 1.1 0
19.2 1.1 0
19.6 1.1 0
20 1.1 0
20.4 1.1 0
20.8 1.1 0
21.2 1.1 0
21.6 1.1 0
22 1.1 0
22.4 1.1 0
22.8 1.1 0
23.2 1.1 0
23.6 1.1 0
24 1.1 0
24.4 1.1 0
24.8 1.1 0
25.2 1.1 0
25.6 1.1 0
26 1.1 0
26.4 1.1 0
26.8 1.1 0
27.2 1.1 0
27.6 1.1 0
28 1.1 0
28.4 1.1 0
28.8 1.1 0
29.2 1.1 0
29.6 1.1 0
30 1.1 0
30.4 1.1 0
30.8 1.1 0
31.2 1.1 0
31.6 1.1 0
32 1.1 0
32.4 1.1 0
32.8 1.1 0
33.2 1.1 0
33.6 1.1 0
34 1.1 0
34.4 1.1 0
34.8 1.1 0
35.2 1.1 0
35.6 1.1 0
36 1.1 0
36.4 1.1 0
36.8 1.1 0
37.2 1.1 0
37.6 1.1 0
38 1.1 0
38.4 1.1 0
38.8 1.1 0
39.2 1.1 0
39.6 1.1 0
40 1.1 0
40.4 1.1 0

POINT_DATA 1224

SCALARS phi double
LOOKUP_TABLE default
0.911619
1.08838
1.18693
1.21817
1.20207
1.16371
1.12152
1.08384
1.05233
1.02601
1.00345
0.983493
0.965362
0.948566
0.932798
0.917857
0.903609
0.889959
0.876841
0.864205
0.852011
0.840231
0.828836
0.817802
0.807099
0.796694
0.786544
0.776598
0.766797
0.757071
0.747345
0.737539
0.727575
0.717373
0.706866
0.695991
0.684699
0.67295
0.660718
0.647988
0.63476
0.621044
0.606857
0.592228
0.577192
0.561786
0.546054
0.530039
0.513787
0.497343
0.480749
0.464048
0.44728
0.430482
0.413689
0.396934
0.380247
0.363657
0.347191
0.330873
0.314729
0.298782
0.283056
0.267573
0.252357
0.23743
0.222816
0.208539
0.194622
0.181088
0.16796
0.155262
0.143016
0.131243
0.119963
0.109196
0.0989585
0.0892649
0.0801279
0.0715569
0.0635581
0.0561342
0.049284
0.043002
0.0372788
0.0321006
0.0274491
0.0233025
0.019635
0.0164177
0.0136194
0.0112066
0.00914504
0.00739927
0.00593623
0.0047175
0.00372376
0.0028881
0.00227432
0.00168506
0.00112271
0.00112271
0.911619
1.08838
1.18693
1.21817
1.20207
1.16371
1.12152
1.08384
1.05233
1.02601
1.00345
0.983493
0.965362
0.948566
0.932798
0.917857
0.903609
0.889959
0.876841
0.864205
0.852011
0.840231
0.828836
0.817802
0.807099
0.796694
0.786544
0.776598
0.766797
0.757071
0.747345
0.737539
0.727575
0.717373
0.706866
0.695991
0.684699
0.67295
0.660718
0.647988
0.63476
0.621044
0.606857
0.592228
0.577192
0.561786
0.546054
0.530039
0.513787
0.497343
0.480749
0.464048
0.44728
0.430482
0.413689
0.396934
0.380247
0.363657
0.347191
0.330873
0.314729
0.298782
0.283056
0.267573
0.252357
0.23743
0.222816
0.208539
0.194622
0.181088
0.16796
0.155262
0.143016
0.131243
0.119963
0.109196
0.0989585
0.0892649
0.0801279
0.0715569
0.0635581
0.0561342
0.049284
0.043002
0.0372788
0.0321006
0.0274491
0.0233025
0.019635
0.0164177
0.0136194
0.0112066
0.00914504
0.00739927
0.00593623
0.0047175
0.00372376
0.0028881
0.00227432
0.00168506
0.00112271
0.00112271
1.00188
0.998125
1.02685
1.06105
1.08319
1.0888
1.08087
1.06447
1.04395
1.02217
1.00069
0.980209
0.960955
0.942917
0.925998
0.910073
0.895022
0.880742
0.867147
0.854167
0.841743
0.829829
0.818384
0.807372
0.79676
0.786513
0.776596
0.766964
0.757572
0.748363
0.739278
0.730251
0.721214
0.712094
0.702824
0.69334
0.683584
0.673505
0.663062
0.65222
0.64096
0.629268
0.617142
0.604587
0.591618
0.578254
0.56452
0.550446
0.536065
0.521408
0.506513
0.491412
0.47614
0.460731
0.445216
0.429625
0.413989
0.398332
0.382683
0.367066
0.351504
0.336022
0.320642
0.305386
0.290278
0.27534
0.260597
0.246071
0.231786
0.217768
0.20404
0.190628
0.177557
0.164851
0.152535
0.140632
0.129165
0.118156
0.107625
0.0975909
0.088071
0.0790798
0.0706294
0.062729
0.0553844
0.0485976
0.0423665
0.0366846
0.0315411
0.0269203
0.0228023
0.0191628
0.0159745
0.0132056
0.0108258
0.00879257
0.00709321
0.00563262
0.00453566
0.00342154
0.00289739
0.00289739
1.01572
0.984281
0.96365
0.958795
0.96217
0.966524
0.967709
0.964361
0.956779
0.945954
0.932986
0.918808
0.904114
0.889375
0.874888
0.860824
0.847273
0.834272
0.821825
0.809921
0.798536
0.787645
0.777219
0.767229
0.75765
0.748451
0.739606
0.731084
0.72285
0.71487
0.707101
0.699499
0.692015
0.684596
0.677187
0.669735
0.662185
0.654486
0.64659
0.638453
0.630039
0.621315
0.612257
0.602847
0.593074
0.582933
0.572425
0.561554
0.55033
0.538768
0.526882
0.514692
0.502216
0.489475
0.47649
0.463282
0.449872
0.436281
0.42253
0.408639
0.394628
0.380517
0.366326
0.352077
0.337791
0.323488
0.309193
0.294928
0.280718
0.266589
0.252567
0.238679
0.224954
0.21142
0.198106
0.185042
0.172258
0.159782
0.147645
0.135877
0.124506
0.113561
0.103072
0.0930639
0.0835639
0.0745947
0.0661769
0.058327
0.0510571
0.0443738
0.0382778
0.0327633
0.0278183
0.0234231
0.0195566
0.0161791
0.0132866
0.0107608
0.00880641
0.00678083
0.0061949
0.0061949
1.02404
0.975965
0.919364
0.876597
0.848753
0.831753
0.821182
0.813715
0.807274
0.800757
0.793701
0.786012
0.777776
0.769148
0.760296
0.751368
0.742486
0.733739
0.725192
0.716889
0.708857
0.70111
0.693652
0.686484
0.679599
0.672989
0.666641
0.660543
0.654676
0.649024
0.643564
0.638273
0.633121
0.628079
0.623112
0.618185
0.613259
0.608295
0.603253
0.598094
0.592781
0.587278
0.581552
0.575574
0.569317
0.562759
0.555881
0.548669
0.541112
0.5332
0.524931
0.5163
0.50731
0.497961
0.488259
0.478209
0.467819
0.457096
0.446051
0.434695
0.42304
0.411099
0.398886
0.386418
0.373713
0.36079
0.34767
0.334376
0.320933
0.307367
0.293708
0.279984
0.266228
0.252473
0.238752
0.225101
0.211555
0.198153
0.18493
0.171927
0.159182
0.146735
0.134629
0.122904
0.111603
0.100767
0.0904365
0.080649
0.0714387
0.0628344
0.054859
0.0475273
0.0408466
0.0348137
0.0294211
0.0246385
0.0204758
0.0167882
0.0139103
0.0107795
0.010317
0.010317
1.11553
0.884471
0.754942
0.682423
0.641439
0.61841
0.605773
0.599099
0.595721
0.594024
0.593049
0.592248
0.591331
0.590167
0.588716
0.586989
0.585024
0.582868
0.580569
0.578172
0.575716
0.573234
0.570753
0.568293
0.565872
0.5635
0.561188
0.558939
0.556757
0.554641
0.552589
0.550595
0.548651
0.546746
0.544868
0.542998
0.541118
0.539205
0.537235
0.535182
0.533019
0.530718
0.528249
0.525584
0.522695
0.519553
0.516132
0.512405
0.508349
0.503943
0.499164
0.493996
0.488421
0.482426
0.475999
0.46913
0.461812
0.45404
0.445813
0.437129
0.427994
0.418411
0.40839
0.397942
0.387081
0.375826
0.364197
0.352216
0.339911
0.32731
0.314445
0.301352
0.288065
0.274623
0.261066
0.247436
0.233774
0.220125
0.206533
0.193044
0.179706
0.166565
0.153673
0.14108
0.128838
0.117001
0.105619
0.094745
0.0844253
0.0747034
0.0656163
0.0571929
0.0494538
0.0424077
0.0360585
0.0303816
0.0254044
0.0209506
0.0174911
0.013561
0.0133571
0.0133571
-0.101677
0.101677
0.204149
0.258515
0.29004
0.310502
0.325452
0.337536
0.348013
0.357476
0.366192
0.374278
0.381784
0.388735
0.395152
0.401057
0.406477
0.411445
0.415995
0.420165
0.423989
0.427504
0.430742
0.433734
0.436507
0.439087
0.441495
0.443751
0.445872
0.447871
0.44976
0.451548
0.453242
0.454845
0.456357
0.457778
0.459102
0.460323
0.46143
0.462408
0.463242
0.463913
0.464398
0.464674
0.464715
0.464494
0.463981
0.463149
0.461965
0.460403
0.458431
0.456022
0.45315
0.449791
0.445921
0.441521
0.436576
0.431072
0.425
0.418354
0.411134
0.403341
0.394984
0.386073
0.376625
0.36666
0.356202
0.345278
0.333922
0.322167
0.310053
0.29762
0.284912
0.271974
0.258854
0.245598
0.232257
0.21888
0.205518
0.192221
0.179043
0.166034
0.153251
0.140746
0.128577
0.116797
0.105462
0.0946238
0.0843328
0.0746334
0.0655636
0.0571537
0.0494247
0.0423864
0.0360429
0.0303704
0.0253963
0.0209448
0.017487
0.0135582
0.0133549
0.0133549
-0.00930645
0.00930645
0.0399923
0.0692732
0.0943627
0.115578
0.133846
0.150008
0.164679
0.178277
0.191068
0.203216
0.214819
0.225933
0.236591
0.246813
0.25661
0.265995
0.274979
0.283574
0.291793
0.299651
0.307164
0.314347
0.321218
0.327793
0.334086
0.340114
0.345891
0.35143
0.356743
0.361841
0.366733
0.371426
0.375926
0.380236
0.384355
0.38828
0.392007
0.395524
0.398821
0.40188
0.404683
0.407207
0.409425
0.41131
0.412831
0.413957
0.414653
0.414887
0.414626
0.413838
0.412492
0.410562
0.408023
0.404855
0.401041
0.396569
0.391434
0.385633
0.37917
0.372056
0.364305
0.355936
0.346977
0.337455
0.327408
0.316871
0.30589
0.294507
0.282773
0.270737
0.258452
0.24597
0.233345
0.220631
0.207882
0.195152
0.182494
0.169961
0.157606
0.14548
0.133635
0.122123
0.110993
0.100294
0.0900722
0.0803705
0.0712272
0.062675
0.0547397
0.0474387
0.0407813
0.0347659
0.0293865
0.0246136
0.020458
0.0167756
0.0139014
0.0107734
0.0103124
0.0103124
-0.000483305
0.000483305
0.0062834
0.014825
0.024693
0.0352056
0.0460684
0.0571535
0.0683964
0.0797547
0.0911921
0.102673
0.114161
0.125618
0.137007
0.14829
0.159435
0.17041
0.181187
0.191744
0.202061
0.212124
0.221921
0.231445
0.240691
0.249657
0.258341
0.266747
0.274876
0.282733
0.290321
0.297643
0.304704
0.311505
0.318047
0.324329
0.330345
0.336089
0.341551
0.346716
0.351566
0.356082
0.360237
0.364005
0.367353
0.370251
0.372662
0.374552
0.375885
0.376627
0.376746
0.376213
0.375
0.373087
0.370457
0.367098
0.363005
0.35818
0.352628
0.346365
0.33941
0.331789
0.323534
0.314681
0.305272
0.295354
0.284976
0.274191
0.263054
0.251623
0.239955
0.22811
0.216146
0.204121
0.192092
0.180116
0.168247
0.156536
0.145034
0.133789
0.122848
0.112253
0.102046
0.0922652
0.0829461
0.0741201
0.0658149
0.0580529
0.050851
0.0442199
0.0381638
0.0326794
0.0277571
0.0233788
0.0195248
0.0161564
0.0132706
0.0107495
0.00879851
0.00677543
0.00619108
0.00619108
4.08322e-05
-4.08322e-05
0.000817245
0.00283838
0.00606915
0.0105077
0.0161103
0.0227913
0.0304364
0.0389186
0.0481101
0.0578891
0.0681419
0.0787647
0.0896628
0.100751
0.111952
0.123199
0.134432
0.145599
0.156657
0.167566
0.178296
0.188821
0.19912
0.209178
0.21898
0.228518
0.237785
0.246775
0.255484
0.263908
0.272041
0.279877
0.287411
0.29463
0.301523
0.308072
0.314257
0.320055
0.325438
0.330375
0.334832
0.338773
0.342162
0.344959
0.347128
0.348632
0.349438
0.349515
0.348839
0.347388
0.345148
0.342113
0.338281
0.333659
0.328261
0.322109
0.31523
0.30766
0.299439
0.290615
0.281238
0.271364
0.261053
0.250366
0.239366
0.228118
0.216687
0.205138
0.193534
0.181937
0.170409
0.159006
0.147783
0.136791
0.12608
0.115693
0.105671
0.0960503
0.0868642
0.0781407
0.0699034
0.0621716
0.0549593
0.0482756
0.0421243
0.0365038
0.0314071
0.0268216
0.0227302
0.0191106
0.0159369
0.0131788
0.0108068
0.00877919
0.00708387
0.00562617
0.00453119
0.00341854
0.00289537
0.00289537
2.2059e-05
-2.2059e-05
0.000114971
0.000803975
0.00239726
0.00512891
0.00909723
0.0142977
0.0206594
0.0280718
0.0364036
0.0455167
0.0552757
0.0655533
0.0762328
0.087209
0.0983885
0.109689
0.121037
0.132371
0.143638
0.15479
0.16579
0.176606
0.187212
0.197586
0.207712
0.217576
0.227167
0.236475
0.245491
0.254207
0.262611
0.270691
0.278434
0.285822
0.292834
0.299444
0.305623
0.311339
0.316556
0.321235
0.325336
0.328819
0.331642
0.333766
0.335154
0.335773
0.335596
0.334599
0.332766
0.33009
0.32657
0.322213
0.317034
0.311058
0.304316
0.296848
0.288697
0.279917
0.270563
0.260698
0.250386
0.239695
0.228694
0.217453
0.206043
0.194533
0.182992
0.171485
0.160077
0.148828
0.137796
0.127033
0.116589
0.106508
0.0968299
0.0875904
0.0788191
0.0705405
0.0627741
0.0555334
0.0488267
0.0426564
0.0370195
0.0319073
0.0273061
0.0231974
0.0195584
0.0163623
0.0135795
0.0111782
0.00912493
0.00738515
0.0059264
0.0047107
0.00371909
0.00288493
0.00227215
0.00168363
0.00112192
0.00112192
2.2059e-05
-2.2059e-05
0.000114971
0.000803975
0.00239726
0.00512891
0.00909723
0.0142977
0.0206594
0.0280718
0.0364036
0.0455167
0.0552757
0.0655533
0.0762328
0.087209
0.0983885
0.109689
0.121037
0.132371
0.143638
0.15479
0.16579
0.176606
0.187212
0.197586
0.207712
0.217576
0.227167
0.236475
0.245491
0.254207
0.262611
0.270691
0.278434
0.285822
0.292834
0.299444
0.305623
0.311339
0.316556
0.321235
0.325336
0.328819
0.331642
0.333766
0.335154
0.335773
0.335596
0.334599
0.332766
0.33009
0.32657
0.322213
0.317034
0.311058
0.304316
0.296848
0.288697
0.279917
0.270563
0.260698
0.250386
0.239695
0.228694
0.217453
0.206043
0.194533
0.182992
0.171485
0.160077
0.148828
0.137796
0.127033
0.116589
0.106508
0.0968299
0.0875904
0.0788191
0.0705405
0.0627741
0.0555334
0.0488267
0.0426564
0.0370195
0.0319073
0.0273061
0.0231974
0.0195584
0.0163623
0.0135795
0.0111782
0.00912493
0.00738515
0.0059264
0.0047107
0.00371909
0.00288493
0.00227215
0.00168363
0.00112192
0.00112192
