# vtk DataFile Version 2.0
FlowField
ASCII
DATASET STRUCTURED_GRID
DIMENSIONS 101 11 1 
POINTS 1111 double
0 0 0
0.3 0 0
0.6 0 0
0.9 0 0
1.2 0 0
1.5 0 0
1.8 0 0
2.1 0 0
2.4 0 0
2.7 0 0
3 0 0
3.3 0 0
3.6 0 0
3.9 0 0
4.2 0 0
4.5 0 0
4.8 0 0
5.1 0 0
5.4 0 0
5.7 0 0
6 0 0
6.3 0 0
6.6 0 0
6.9 0 0
7.2 0 0
7.5 0 0
7.8 0 0
8.1 0 0
8.4 0 0
8.7 0 0
9 0 0
9.3 0 0
9.6 0 0
9.9 0 0
10.2 0 0
10.5 0 0
10.8 0 0
11.1 0 0
11.4 0 0
11.7 0 0
12 0 0
12.3 0 0
12.6 0 0
12.9 0 0
13.2 0 0
13.5 0 0
13.8 0 0
14.1 0 0
14.4 0 0
14.7 0 0
15 0 0
15.3 0 0
15.6 0 0
15.9 0 0
16.2 0 0
16.5 0 0
16.8 0 0
17.1 0 0
17.4 0 0
17.7 0 0
18 0 0
18.3 0 0
18.6 0 0
18.9 0 0
19.2 0 0
19.5 0 0
19.8 0 0
20.1 0 0
20.4 0 0
20.7 0 0
21 0 0
21.3 0 0
21.6 0 0
21.9 0 0
22.2 0 0
22.5 0 0
22.8 0 0
23.1 0 0
23.4 0 0
23.7 0 0
24 0 0
24.3 0 0
24.6 0 0
24.9 0 0
25.2 0 0
25.5 0 0
25.8 0 0
26.1 0 0
26.4 0 0
26.7 0 0
27 0 0
27.3 0 0
27.6 0 0
27.9 0 0
28.2 0 0
28.5 0 0
28.8 0 0
29.1 0 0
29.4 0 0
29.7 0 0
30 0 0
0 0.1 0
0.3 0.1 0
0.6 0.1 0
0.9 0.1 0
1.2 0.1 0
1.5 0.1 0
1.8 0.1 0
2.1 0.1 0
2.4 0.1 0
2.7 0.1 0
3 0.1 0
3.3 0.1 0
3.6 0.1 0
3.9 0.1 0
4.2 0.1 0
4.5 0.1 0
4.8 0.1 0
5.1 0.1 0
5.4 0.1 0
5.7 0.1 0
6 0.1 0
6.3 0.1 0
6.6 0.1 0
6.9 0.1 0
7.2 0.1 0
7.5 0.1 0
7.8 0.1 0
8.1 0.1 0
8.4 0.1 0
8.7 0.1 0
9 0.1 0
9.3 0.1 0
9.6 0.1 0
9.9 0.1 0
10.2 0.1 0
10.5 0.1 0
10.8 0.1 0
11.1 0.1 0
11.4 0.1 0
11.7 0.1 0
12 0.1 0
12.3 0.1 0
12.6 0.1 0
12.9 0.1 0
13.2 0.1 0
13.5 0.1 0
13.8 0.1 0
14.1 0.1 0
14.4 0.1 0
14.7 0.1 0
15 0.1 0
15.3 0.1 0
15.6 0.1 0
15.9 0.1 0
16.2 0.1 0
16.5 0.1 0
16.8 0.1 0
17.1 0.1 0
17.4 0.1 0
17.7 0.1 0
18 0.1 0
18.3 0.1 0
18.6 0.1 0
18.9 0.1 0
19.2 0.1 0
19.5 0.1 0
19.8 0.1 0
20.1 0.1 0
20.4 0.1 0
20.7 0.1 0
21 0.1 0
21.3 0.1 0
21.6 0.1 0
21.9 0.1 0
22.2 0.1 0
22.5 0.1 0
22.8 0.1 0
23.1 0.1 0
23.4 0.1 0
23.7 0.1 0
24 0.1 0
24.3 0.1 0
24.6 0.1 0
24.9 0.1 0
25.2 0.1 0
25.5 0.1 0
25.8 0.1 0
26.1 0.1 0
26.4 0.1 0
26.7 0.1 0
27 0.1 0
27.3 0.1 0
27.6 0.1 0
27.9 0.1 0
28.2 0.1 0
28.5 0.1 0
28.8 0.1 0
29.1 0.1 0
29.4 0.1 0
29.7 0.1 0
30 0.1 0
0 0.2 0
0.3 0.2 0
0.6 0.2 0
0.9 0.2 0
1.2 0.2 0
1.5 0.2 0
1.8 0.2 0
2.1 0.2 0
2.4 0.2 0
2.7 0.2 0
3 0.2 0
3.3 0.2 0
3.6 0.2 0
3.9 0.2 0
4.2 0.2 0
4.5 0.2 0
4.8 0.2 0
5.1 0.2 0
5.4 0.2 0
5.7 0.2 0
6 0.2 0
6.3 0.2 0
6.6 0.2 0
6.9 0.2 0
7.2 0.2 0
7.5 0.2 0
7.8 0.2 0
8.1 0.2 0
8.4 0.2 0
8.7 0.2 0
9 0.2 0
9.3 0.2 0
9.6 0.2 0
9.9 0.2 0
10.2 0.2 0
10.5 0.2 0
10.8 0.2 0
11.1 0.2 0
11.4 0.2 0
11.7 0.2 0
12 0.2 0
12.3 0.2 0
12.6 0.2 0
12.9 0.2 0
13.2 0.2 0
13.5 0.2 0
13.8 0.2 0
14.1 0.2 0
14.4 0.2 0
14.7 0.2 0
15 0.2 0
15.3 0.2 0
15.6 0.2 0
15.9 0.2 0
16.2 0.2 0
16.5 0.2 0
16.8 0.2 0
17.1 0.2 0
17.4 0.2 0
17.7 0.2 0
18 0.2 0
18.3 0.2 0
18.6 0.2 0
18.9 0.2 0
19.2 0.2 0
19.5 0.2 0
19.8 0.2 0
20.1 0.2 0
20.4 0.2 0
20.7 0.2 0
21 0.2 0
21.3 0.2 0
21.6 0.2 0
21.9 0.2 0
22.2 0.2 0
22.5 0.2 0
22.8 0.2 0
23.1 0.2 0
23.4 0.2 0
23.7 0.2 0
24 0.2 0
24.3 0.2 0
24.6 0.2 0
24.9 0.2 0
25.2 0.2 0
25.5 0.2 0
25.8 0.2 0
26.1 0.2 0
26.4 0.2 0
26.7 0.2 0
27 0.2 0
27.3 0.2 0
27.6 0.2 0
27.9 0.2 0
28.2 0.2 0
28.5 0.2 0
28.8 0.2 0
29.1 0.2 0
29.4 0.2 0
29.7 0.2 0
30 0.2 0
0 0.3 0
0.3 0.3 0
0.6 0.3 0
0.9 0.3 0
1.2 0.3 0
1.5 0.3 0
1.8 0.3 0
2.1 0.3 0
2.4 0.3 0
2.7 0.3 0
3 0.3 0
3.3 0.3 0
3.6 0.3 0
3.9 0.3 0
4.2 0.3 0
4.5 0.3 0
4.8 0.3 0
5.1 0.3 0
5.4 0.3 0
5.7 0.3 0
6 0.3 0
6.3 0.3 0
6.6 0.3 0
6.9 0.3 0
7.2 0.3 0
7.5 0.3 0
7.8 0.3 0
8.1 0.3 0
8.4 0.3 0
8.7 0.3 0
9 0.3 0
9.3 0.3 0
9.6 0.3 0
9.9 0.3 0
10.2 0.3 0
10.5 0.3 0
10.8 0.3 0
11.1 0.3 0
11.4 0.3 0
11.7 0.3 0
12 0.3 0
12.3 0.3 0
12.6 0.3 0
12.9 0.3 0
13.2 0.3 0
13.5 0.3 0
13.8 0.3 0
14.1 0.3 0
14.4 0.3 0
14.7 0.3 0
15 0.3 0
15.3 0.3 0
15.6 0.3 0
15.9 0.3 0
16.2 0.3 0
16.5 0.3 0
16.8 0.3 0
17.1 0.3 0
17.4 0.3 0
17.7 0.3 0
18 0.3 0
18.3 0.3 0
18.6 0.3 0
18.9 0.3 0
19.2 0.3 0
19.5 0.3 0
19.8 0.3 0
20.1 0.3 0
20.4 0.3 0
20.7 0.3 0
21 0.3 0
21.3 0.3 0
21.6 0.3 0
21.9 0.3 0
22.2 0.3 0
22.5 0.3 0
22.8 0.3 0
23.1 0.3 0
23.4 0.3 0
23.7 0.3 0
24 0.3 0
24.3 0.3 0
24.6 0.3 0
24.9 0.3 0
25.2 0.3 0
25.5 0.3 0
25.8 0.3 0
26.1 0.3 0
26.4 0.3 0
26.7 0.3 0
27 0.3 0
27.3 0.3 0
27.6 0.3 0
27.9 0.3 0
28.2 0.3 0
28.5 0.3 0
28.8 0.3 0
29.1 0.3 0
29.4 0.3 0
29.7 0.3 0
30 0.3 0
0 0.4 0
0.3 0.4 0
0.6 0.4 0
0.9 0.4 0
1.2 0.4 0
1.5 0.4 0
1.8 0.4 0
2.1 0.4 0
2.4 0.4 0
2.7 0.4 0
3 0.4 0
3.3 0.4 0
3.6 0.4 0
3.9 0.4 0
4.2 0.4 0
4.5 0.4 0
4.8 0.4 0
5.1 0.4 0
5.4 0.4 0
5.7 0.4 0
6 0.4 0
6.3 0.4 0
6.6 0.4 0
6.9 0.4 0
7.2 0.4 0
7.5 0.4 0
7.8 0.4 0
8.1 0.4 0
8.4 0.4 0
8.7 0.4 0
9 0.4 0
9.3 0.4 0
9.6 0.4 0
9.9 0.4 0
10.2 0.4 0
10.5 0.4 0
10.8 0.4 0
11.1 0.4 0
11.4 0.4 0
11.7 0.4 0
12 0.4 0
12.3 0.4 0
12.6 0.4 0
12.9 0.4 0
13.2 0.4 0
13.5 0.4 0
13.8 0.4 0
14.1 0.4 0
14.4 0.4 0
14.7 0.4 0
15 0.4 0
15.3 0.4 0
15.6 0.4 0
15.9 0.4 0
16.2 0.4 0
16.5 0.4 0
16.8 0.4 0
17.1 0.4 0
17.4 0.4 0
17.7 0.4 0
18 0.4 0
18.3 0.4 0
18.6 0.4 0
18.9 0.4 0
19.2 0.4 0
19.5 0.4 0
19.8 0.4 0
20.1 0.4 0
20.4 0.4 0
20.7 0.4 0
21 0.4 0
21.3 0.4 0
21.6 0.4 0
21.9 0.4 0
22.2 0.4 0
22.5 0.4 0
22.8 0.4 0
23.1 0.4 0
23.4 0.4 0
23.7 0.4 0
24 0.4 0
24.3 0.4 0
24.6 0.4 0
24.9 0.4 0
25.2 0.4 0
25.5 0.4 0
25.8 0.4 0
26.1 0.4 0
26.4 0.4 0
26.7 0.4 0
27 0.4 0
27.3 0.4 0
27.6 0.4 0
27.9 0.4 0
28.2 0.4 0
28.5 0.4 0
28.8 0.4 0
29.1 0.4 0
29.4 0.4 0
29.7 0.4 0
30 0.4 0
0 0.5 0
0.3 0.5 0
0.6 0.5 0
0.9 0.5 0
1.2 0.5 0
1.5 0.5 0
1.8 0.5 0
2.1 0.5 0
2.4 0.5 0
2.7 0.5 0
3 0.5 0
3.3 0.5 0
3.6 0.5 0
3.9 0.5 0
4.2 0.5 0
4.5 0.5 0
4.8 0.5 0
5.1 0.5 0
5.4 0.5 0
5.7 0.5 0
6 0.5 0
6.3 0.5 0
6.6 0.5 0
6.9 0.5 0
7.2 0.5 0
7.5 0.5 0
7.8 0.5 0
8.1 0.5 0
8.4 0.5 0
8.7 0.5 0
9 0.5 0
9.3 0.5 0
9.6 0.5 0
9.9 0.5 0
10.2 0.5 0
10.5 0.5 0
10.8 0.5 0
11.1 0.5 0
11.4 0.5 0
11.7 0.5 0
12 0.5 0
12.3 0.5 0
12.6 0.5 0
12.9 0.5 0
13.2 0.5 0
13.5 0.5 0
13.8 0.5 0
14.1 0.5 0
14.4 0.5 0
14.7 0.5 0
15 0.5 0
15.3 0.5 0
15.6 0.5 0
15.9 0.5 0
16.2 0.5 0
16.5 0.5 0
16.8 0.5 0
17.1 0.5 0
17.4 0.5 0
17.7 0.5 0
18 0.5 0
18.3 0.5 0
18.6 0.5 0
18.9 0.5 0
19.2 0.5 0
19.5 0.5 0
19.8 0.5 0
20.1 0.5 0
20.4 0.5 0
20.7 0.5 0
21 0.5 0
21.3 0.5 0
21.6 0.5 0
21.9 0.5 0
22.2 0.5 0
22.5 0.5 0
22.8 0.5 0
23.1 0.5 0
23.4 0.5 0
23.7 0.5 0
24 0.5 0
24.3 0.5 0
24.6 0.5 0
24.9 0.5 0
25.2 0.5 0
25.5 0.5 0
25.8 0.5 0
26.1 0.5 0
26.4 0.5 0
26.7 0.5 0
27 0.5 0
27.3 0.5 0
27.6 0.5 0
27.9 0.5 0
28.2 0.5 0
28.5 0.5 0
28.8 0.5 0
29.1 0.5 0
29.4 0.5 0
29.7 0.5 0
30 0.5 0
0 0.6 0
0.3 0.6 0
0.6 0.6 0
0.9 0.6 0
1.2 0.6 0
1.5 0.6 0
1.8 0.6 0
2.1 0.6 0
2.4 0.6 0
2.7 0.6 0
3 0.6 0
3.3 0.6 0
3.6 0.6 0
3.9 0.6 0
4.2 0.6 0
4.5 0.6 0
4.8 0.6 0
5.1 0.6 0
5.4 0.6 0
5.7 0.6 0
6 0.6 0
6.3 0.6 0
6.6 0.6 0
6.9 0.6 0
7.2 0.6 0
7.5 0.6 0
7.8 0.6 0
8.1 0.6 0
8.4 0.6 0
8.7 0.6 0
9 0.6 0
9.3 0.6 0
9.6 0.6 0
9.9 0.6 0
10.2 0.6 0
10.5 0.6 0
10.8 0.6 0
11.1 0.6 0
11.4 0.6 0
11.7 0.6 0
12 0.6 0
12.3 0.6 0
12.6 0.6 0
12.9 0.6 0
13.2 0.6 0
13.5 0.6 0
13.8 0.6 0
14.1 0.6 0
14.4 0.6 0
14.7 0.6 0
15 0.6 0
15.3 0.6 0
15.6 0.6 0
15.9 0.6 0
16.2 0.6 0
16.5 0.6 0
16.8 0.6 0
17.1 0.6 0
17.4 0.6 0
17.7 0.6 0
18 0.6 0
18.3 0.6 0
18.6 0.6 0
18.9 0.6 0
19.2 0.6 0
19.5 0.6 0
19.8 0.6 0
20.1 0.6 0
20.4 0.6 0
20.7 0.6 0
21 0.6 0
21.3 0.6 0
21.6 0.6 0
21.9 0.6 0
22.2 0.6 0
22.5 0.6 0
22.8 0.6 0
23.1 0.6 0
23.4 0.6 0
23.7 0.6 0
24 0.6 0
24.3 0.6 0
24.6 0.6 0
24.9 0.6 0
25.2 0.6 0
25.5 0.6 0
25.8 0.6 0
26.1 0.6 0
26.4 0.6 0
26.7 0.6 0
27 0.6 0
27.3 0.6 0
27.6 0.6 0
27.9 0.6 0
28.2 0.6 0
28.5 0.6 0
28.8 0.6 0
29.1 0.6 0
29.4 0.6 0
29.7 0.6 0
30 0.6 0
0 0.7 0
0.3 0.7 0
0.6 0.7 0
0.9 0.7 0
1.2 0.7 0
1.5 0.7 0
1.8 0.7 0
2.1 0.7 0
2.4 0.7 0
2.7 0.7 0
3 0.7 0
3.3 0.7 0
3.6 0.7 0
3.9 0.7 0
4.2 0.7 0
4.5 0.7 0
4.8 0.7 0
5.1 0.7 0
5.4 0.7 0
5.7 0.7 0
6 0.7 0
6.3 0.7 0
6.6 0.7 0
6.9 0.7 0
7.2 0.7 0
7.5 0.7 0
7.8 0.7 0
8.1 0.7 0
8.4 0.7 0
8.7 0.7 0
9 0.7 0
9.3 0.7 0
9.6 0.7 0
9.9 0.7 0
10.2 0.7 0
10.5 0.7 0
10.8 0.7 0
11.1 0.7 0
11.4 0.7 0
11.7 0.7 0
12 0.7 0
12.3 0.7 0
12.6 0.7 0
12.9 0.7 0
13.2 0.7 0
13.5 0.7 0
13.8 0.7 0
14.1 0.7 0
14.4 0.7 0
14.7 0.7 0
15 0.7 0
15.3 0.7 0
15.6 0.7 0
15.9 0.7 0
16.2 0.7 0
16.5 0.7 0
16.8 0.7 0
17.1 0.7 0
17.4 0.7 0
17.7 0.7 0
18 0.7 0
18.3 0.7 0
18.6 0.7 0
18.9 0.7 0
19.2 0.7 0
19.5 0.7 0
19.8 0.7 0
20.1 0.7 0
20.4 0.7 0
20.7 0.7 0
21 0.7 0
21.3 0.7 0
21.6 0.7 0
21.9 0.7 0
22.2 0.7 0
22.5 0.7 0
22.8 0.7 0
23.1 0.7 0
23.4 0.7 0
23.7 0.7 0
24 0.7 0
24.3 0.7 0
24.6 0.7 0
24.9 0.7 0
25.2 0.7 0
25.5 0.7 0
25.8 0.7 0
26.1 0.7 0
26.4 0.7 0
26.7 0.7 0
27 0.7 0
27.3 0.7 0
27.6 0.7 0
27.9 0.7 0
28.2 0.7 0
28.5 0.7 0
28.8 0.7 0
29.1 0.7 0
29.4 0.7 0
29.7 0.7 0
30 0.7 0
0 0.8 0
0.3 0.8 0
0.6 0.8 0
0.9 0.8 0
1.2 0.8 0
1.5 0.8 0
1.8 0.8 0
2.1 0.8 0
2.4 0.8 0
2.7 0.8 0
3 0.8 0
3.3 0.8 0
3.6 0.8 0
3.9 0.8 0
4.2 0.8 0
4.5 0.8 0
4.8 0.8 0
5.1 0.8 0
5.4 0.8 0
5.7 0.8 0
6 0.8 0
6.3 0.8 0
6.6 0.8 0
6.9 0.8 0
7.2 0.8 0
7.5 0.8 0
7.8 0.8 0
8.1 0.8 0
8.4 0.8 0
8.7 0.8 0
9 0.8 0
9.3 0.8 0
9.6 0.8 0
9.9 0.8 0
10.2 0.8 0
10.5 0.8 0
10.8 0.8 0
11.1 0.8 0
11.4 0.8 0
11.7 0.8 0
12 0.8 0
12.3 0.8 0
12.6 0.8 0
12.9 0.8 0
13.2 0.8 0
13.5 0.8 0
13.8 0.8 0
14.1 0.8 0
14.4 0.8 0
14.7 0.8 0
15 0.8 0
15.3 0.8 0
15.6 0.8 0
15.9 0.8 0
16.2 0.8 0
16.5 0.8 0
16.8 0.8 0
17.1 0.8 0
17.4 0.8 0
17.7 0.8 0
18 0.8 0
18.3 0.8 0
18.6 0.8 0
18.9 0.8 0
19.2 0.8 0
19.5 0.8 0
19.8 0.8 0
20.1 0.8 0
20.4 0.8 0
20.7 0.8 0
21 0.8 0
21.3 0.8 0
21.6 0.8 0
21.9 0.8 0
22.2 0.8 0
22.5 0.8 0
22.8 0.8 0
23.1 0.8 0
23.4 0.8 0
23.7 0.8 0
24 0.8 0
24.3 0.8 0
24.6 0.8 0
24.9 0.8 0
25.2 0.8 0
25.5 0.8 0
25.8 0.8 0
26.1 0.8 0
26.4 0.8 0
26.7 0.8 0
27 0.8 0
27.3 0.8 0
27.6 0.8 0
27.9 0.8 0
28.2 0.8 0
28.5 0.8 0
28.8 0.8 0
29.1 0.8 0
29.4 0.8 0
29.7 0.8 0
30 0.8 0
0 0.9 0
0.3 0.9 0
0.6 0.9 0
0.9 0.9 0
1.2 0.9 0
1.5 0.9 0
1.8 0.9 0
2.1 0.9 0
2.4 0.9 0
2.7 0.9 0
3 0.9 0
3.3 0.9 0
3.6 0.9 0
3.9 0.9 0
4.2 0.9 0
4.5 0.9 0
4.8 0.9 0
5.1 0.9 0
5.4 0.9 0
5.7 0.9 0
6 0.9 0
6.3 0.9 0
6.6 0.9 0
6.9 0.9 0
7.2 0.9 0
7.5 0.9 0
7.8 0.9 0
8.1 0.9 0
8.4 0.9 0
8.7 0.9 0
9 0.9 0
9.3 0.9 0
9.6 0.9 0
9.9 0.9 0
10.2 0.9 0
10.5 0.9 0
10.8 0.9 0
11.1 0.9 0
11.4 0.9 0
11.7 0.9 0
12 0.9 0
12.3 0.9 0
12.6 0.9 0
12.9 0.9 0
13.2 0.9 0
13.5 0.9 0
13.8 0.9 0
14.1 0.9 0
14.4 0.9 0
14.7 0.9 0
15 0.9 0
15.3 0.9 0
15.6 0.9 0
15.9 0.9 0
16.2 0.9 0
16.5 0.9 0
16.8 0.9 0
17.1 0.9 0
17.4 0.9 0
17.7 0.9 0
18 0.9 0
18.3 0.9 0
18.6 0.9 0
18.9 0.9 0
19.2 0.9 0
19.5 0.9 0
19.8 0.9 0
20.1 0.9 0
20.4 0.9 0
20.7 0.9 0
21 0.9 0
21.3 0.9 0
21.6 0.9 0
21.9 0.9 0
22.2 0.9 0
22.5 0.9 0
22.8 0.9 0
23.1 0.9 0
23.4 0.9 0
23.7 0.9 0
24 0.9 0
24.3 0.9 0
24.6 0.9 0
24.9 0.9 0
25.2 0.9 0
25.5 0.9 0
25.8 0.9 0
26.1 0.9 0
26.4 0.9 0
26.7 0.9 0
27 0.9 0
27.3 0.9 0
27.6 0.9 0
27.9 0.9 0
28.2 0.9 0
28.5 0.9 0
28.8 0.9 0
29.1 0.9 0
29.4 0.9 0
29.7 0.9 0
30 0.9 0
0 1 0
0.3 1 0
0.6 1 0
0.9 1 0
1.2 1 0
1.5 1 0
1.8 1 0
2.1 1 0
2.4 1 0
2.7 1 0
3 1 0
3.3 1 0
3.6 1 0
3.9 1 0
4.2 1 0
4.5 1 0
4.8 1 0
5.1 1 0
5.4 1 0
5.7 1 0
6 1 0
6.3 1 0
6.6 1 0
6.9 1 0
7.2 1 0
7.5 1 0
7.8 1 0
8.1 1 0
8.4 1 0
8.7 1 0
9 1 0
9.3 1 0
9.6 1 0
9.9 1 0
10.2 1 0
10.5 1 0
10.8 1 0
11.1 1 0
11.4 1 0
11.7 1 0
12 1 0
12.3 1 0
12.6 1 0
12.9 1 0
13.2 1 0
13.5 1 0
13.8 1 0
14.1 1 0
14.4 1 0
14.7 1 0
15 1 0
15.3 1 0
15.6 1 0
15.9 1 0
16.2 1 0
16.5 1 0
16.8 1 0
17.1 1 0
17.4 1 0
17.7 1 0
18 1 0
18.3 1 0
18.6 1 0
18.9 1 0
19.2 1 0
19.5 1 0
19.8 1 0
20.1 1 0
20.4 1 0
20.7 1 0
21 1 0
21.3 1 0
21.6 1 0
21.9 1 0
22.2 1 0
22.5 1 0
22.8 1 0
23.1 1 0
23.4 1 0
23.7 1 0
24 1 0
24.3 1 0
24.6 1 0
24.9 1 0
25.2 1 0
25.5 1 0
25.8 1 0
26.1 1 0
26.4 1 0
26.7 1 0
27 1 0
27.3 1 0
27.6 1 0
27.9 1 0
28.2 1 0
28.5 1 0
28.8 1 0
29.1 1 0
29.4 1 0
29.7 1 0
30 1 0

POINT_DATA 1111

SCALARS u double
LOOKUP_TABLE default
-1
-0.892043
-0.781757
-0.688941
-0.614562
-0.556463
-0.511783
-0.477674
-0.451684
-0.431924
-0.417041
-0.406062
-0.398221
-0.392855
-0.389367
-0.387229
-0.386006
-0.385362
-0.385058
-0.384933
-0.384893
-0.384888
-0.384892
-0.384897
-0.384901
-0.384903
-0.384904
-0.384905
-0.384905
-0.384905
-0.384905
-0.384905
-0.384905
-0.384905
-0.384905
-0.384905
-0.384905
-0.384905
-0.384905
-0.384905
-0.384905
-0.384905
-0.384905
-0.384906
-0.384906
-0.384906
-0.384906
-0.384906
-0.384906
-0.384906
-0.384906
-0.384906
-0.384906
-0.384906
-0.384906
-0.384906
-0.384906
-0.384906
-0.384906
-0.384906
-0.384906
-0.384906
-0.384906
-0.384906
-0.384906
-0.384906
-0.384906
-0.384906
-0.384906
-0.384906
-0.384906
-0.384906
-0.384906
-0.384906
-0.384906
-0.384906
-0.384906
-0.384906
-0.384906
-0.384906
-0.384906
-0.384906
-0.384906
-0.384906
-0.384906
-0.384906
-0.384906
-0.384906
-0.384906
-0.384906
-0.384906
-0.384906
-0.384906
-0.384906
-0.384908
-0.384908
-0.384922
-0.384938
-0.385064
-0.385064
-1
1
0.892043
0.781757
0.688941
0.614562
0.556463
0.511783
0.477674
0.451684
0.431924
0.417041
0.406062
0.398221
0.392855
0.389367
0.387229
0.386006
0.385362
0.385058
0.384933
0.384893
0.384888
0.384892
0.384897
0.384901
0.384903
0.384904
0.384905
0.384905
0.384905
0.384905
0.384905
0.384905
0.384905
0.384905
0.384905
0.384905
0.384905
0.384905
0.384905
0.384905
0.384905
0.384905
0.384906
0.384906
0.384906
0.384906
0.384906
0.384906
0.384906
0.384906
0.384906
0.384906
0.384906
0.384906
0.384906
0.384906
0.384906
0.384906
0.384906
0.384906
0.384906
0.384906
0.384906
0.384906
0.384906
0.384906
0.384906
0.384906
0.384906
0.384906
0.384906
0.384906
0.384906
0.384906
0.384906
0.384906
0.384906
0.384906
0.384906
0.384906
0.384906
0.384906
0.384906
0.384906
0.384906
0.384906
0.384906
0.384906
0.384906
0.384906
0.384906
0.384906
0.384906
0.384908
0.384908
0.384922
0.384938
0.385064
0.385064
1
1
1.03004
1.03872
1.03587
1.02713
1.01543
1.00247
0.989238
0.976346
0.964243
0.953302
0.943837
0.936065
0.930052
0.9257
0.922771
0.920951
0.919918
0.919391
0.919156
0.919073
0.919056
0.919063
0.919074
0.919083
0.919088
0.919091
0.919093
0.919094
0.919094
0.919095
0.919095
0.919095
0.919095
0.919095
0.919095
0.919095
0.919095
0.919095
0.919095
0.919095
0.919095
0.919095
0.919095
0.919095
0.919095
0.919095
0.919095
0.919095
0.919095
0.919095
0.919095
0.919095
0.919095
0.919095
0.919096
0.919096
0.919096
0.919096
0.919096
0.919096
0.919096
0.919096
0.919096
0.919096
0.919096
0.919096
0.919096
0.919096
0.919096
0.919096
0.919096
0.919096
0.919096
0.919096
0.919096
0.919096
0.919096
0.919096
0.919096
0.919096
0.919096
0.919096
0.919096
0.919096
0.919096
0.919096
0.919096
0.919096
0.919096
0.919096
0.919096
0.919096
0.919096
0.919097
0.919096
0.919107
0.919095
0.91931
0.91931
1
1
1.03528
1.07404
1.1071
1.13349
1.15381
1.16904
1.18025
1.18834
1.19406
1.19797
1.2005
1.20201
1.20281
1.20315
1.20324
1.2032
1.20312
1.20305
1.203
1.20296
1.20295
1.20294
1.20294
1.20294
1.20294
1.20294
1.20295
1.20295
1.20295
1.20295
1.20295
1.20295
1.20295
1.20295
1.20295
1.20295
1.20295
1.20295
1.20295
1.20295
1.20295
1.20295
1.20295
1.20295
1.20295
1.20295
1.20295
1.20295
1.20295
1.20295
1.20295
1.20295
1.20295
1.20295
1.20295
1.20295
1.20295
1.20295
1.20295
1.20295
1.20295
1.20295
1.20295
1.20295
1.20295
1.20295
1.20295
1.20295
1.20295
1.20295
1.20295
1.20295
1.20295
1.20295
1.20295
1.20295
1.20295
1.20295
1.20295
1.20295
1.20295
1.20295
1.20295
1.20295
1.20295
1.20295
1.20295
1.20295
1.20295
1.20295
1.20295
1.20295
1.20295
1.20295
1.20295
1.20294
1.20294
1.20293
1.20293
1
1
1.02921
1.07124
1.11265
1.14986
1.18204
1.20937
1.23245
1.25192
1.2683
1.28191
1.29294
1.30155
1.30795
1.31245
1.31542
1.31724
1.31826
1.31878
1.31901
1.31909
1.31911
1.31911
1.3191
1.31909
1.31908
1.31908
1.31908
1.31907
1.31907
1.31907
1.31907
1.31907
1.31907
1.31907
1.31907
1.31907
1.31907
1.31907
1.31907
1.31907
1.31907
1.31907
1.31907
1.31907
1.31907
1.31907
1.31907
1.31907
1.31907
1.31907
1.31907
1.31907
1.31907
1.31907
1.31907
1.31907
1.31907
1.31907
1.31907
1.31907
1.31907
1.31907
1.31907
1.31907
1.31907
1.31907
1.31907
1.31907
1.31907
1.31907
1.31907
1.31907
1.31907
1.31907
1.31907
1.31907
1.31907
1.31907
1.31907
1.31907
1.31907
1.31907
1.31907
1.31907
1.31907
1.31907
1.31907
1.31907
1.31907
1.31907
1.31907
1.31907
1.31907
1.31907
1.31907
1.31906
1.31906
1.31886
1.31886
1
1
1.02685
1.06849
1.11086
1.14991
1.18452
1.21466
1.24079
1.26341
1.28293
1.29955
1.31333
1.32432
1.33266
1.33865
1.34269
1.34522
1.34668
1.34745
1.34781
1.34796
1.348
1.34801
1.348
1.34799
1.34798
1.34797
1.34797
1.34797
1.34797
1.34797
1.34797
1.34797
1.34797
1.34797
1.34797
1.34797
1.34797
1.34797
1.34797
1.34797
1.34797
1.34797
1.34797
1.34797
1.34797
1.34797
1.34797
1.34797
1.34797
1.34797
1.34797
1.34797
1.34797
1.34797
1.34797
1.34797
1.34797
1.34797
1.34797
1.34797
1.34797
1.34797
1.34797
1.34797
1.34797
1.34797
1.34797
1.34797
1.34797
1.34797
1.34797
1.34797
1.34797
1.34797
1.34797
1.34797
1.34797
1.34797
1.34797
1.34797
1.34797
1.34797
1.34797
1.34797
1.34797
1.34797
1.34797
1.34797
1.34797
1.34797
1.34797
1.34797
1.34797
1.34797
1.34797
1.34795
1.34795
1.34768
1.34768
1
1
1.02921
1.07124
1.11265
1.14986
1.18204
1.20937
1.23245
1.25192
1.2683
1.28191
1.29294
1.30155
1.30795
1.31245
1.31542
1.31724
1.31826
1.31878
1.31901
1.31909
1.31911
1.31911
1.3191
1.31909
1.31908
1.31908
1.31908
1.31907
1.31907
1.31907
1.31907
1.31907
1.31907
1.31907
1.31907
1.31907
1.31907
1.31907
1.31907
1.31907
1.31907
1.31907
1.31907
1.31907
1.31907
1.31907
1.31907
1.31907
1.31907
1.31907
1.31907
1.31907
1.31907
1.31907
1.31907
1.31907
1.31907
1.31907
1.31907
1.31907
1.31907
1.31907
1.31907
1.31907
1.31907
1.31907
1.31907
1.31907
1.31907
1.31907
1.31907
1.31907
1.31907
1.31907
1.31907
1.31907
1.31907
1.31907
1.31907
1.31907
1.31907
1.31907
1.31907
1.31907
1.31907
1.31907
1.31907
1.31907
1.31907
1.31907
1.31907
1.31907
1.31907
1.31907
1.31907
1.31906
1.31906
1.31886
1.31886
1
1
1.03528
1.07404
1.1071
1.13349
1.15381
1.16904
1.18025
1.18834
1.19406
1.19797
1.2005
1.20201
1.20281
1.20315
1.20324
1.2032
1.20312
1.20305
1.203
1.20296
1.20295
1.20294
1.20294
1.20294
1.20294
1.20294
1.20295
1.20295
1.20295
1.20295
1.20295
1.20295
1.20295
1.20295
1.20295
1.20295
1.20295
1.20295
1.20295
1.20295
1.20295
1.20295
1.20295
1.20295
1.20295
1.20295
1.20295
1.20295
1.20295
1.20295
1.20295
1.20295
1.20295
1.20295
1.20295
1.20295
1.20295
1.20295
1.20295
1.20295
1.20295
1.20295
1.20295
1.20295
1.20295
1.20295
1.20295
1.20295
1.20295
1.20295
1.20295
1.20295
1.20295
1.20295
1.20295
1.20295
1.20295
1.20295
1.20295
1.20295
1.20295
1.20295
1.20295
1.20295
1.20295
1.20295
1.20295
1.20295
1.20295
1.20295
1.20295
1.20295
1.20295
1.20295
1.20295
1.20294
1.20294
1.20293
1.20293
1
1
1.03004
1.03872
1.03587
1.02713
1.01543
1.00247
0.989238
0.976346
0.964243
0.953302
0.943837
0.936065
0.930052
0.9257
0.922771
0.920951
0.919918
0.919391
0.919156
0.919073
0.919056
0.919063
0.919074
0.919082
0.919088
0.919091
0.919093
0.919093
0.919094
0.919094
0.919094
0.919094
0.919094
0.919094
0.919094
0.919094
0.919094
0.919094
0.919094
0.919094
0.919095
0.919095
0.919095
0.919095
0.919095
0.919095
0.919095
0.919095
0.919095
0.919095
0.919095
0.919095
0.919095
0.919095
0.919095
0.919095
0.919095
0.919095
0.919095
0.919095
0.919095
0.919095
0.919095
0.919095
0.919095
0.919095
0.919095
0.919095
0.919095
0.919095
0.919095
0.919095
0.919095
0.919095
0.919095
0.919095
0.919095
0.919095
0.919095
0.919095
0.919095
0.919095
0.919095
0.919095
0.919095
0.919095
0.919095
0.919095
0.919095
0.919095
0.919095
0.919095
0.919095
0.919096
0.919095
0.919106
0.919094
0.919309
0.919309
1
1
0.892043
0.781757
0.688941
0.614562
0.556464
0.511783
0.477675
0.451685
0.431925
0.417041
0.406062
0.398221
0.392856
0.389367
0.387229
0.386006
0.385362
0.385058
0.384933
0.384893
0.384888
0.384892
0.384897
0.384901
0.384903
0.384904
0.384905
0.384905
0.384905
0.384905
0.384905
0.384905
0.384905
0.384905
0.384905
0.384905
0.384905
0.384905
0.384905
0.384905
0.384905
0.384905
0.384905
0.384905
0.384905
0.384905
0.384905
0.384905
0.384905
0.384905
0.384905
0.384905
0.384905
0.384905
0.384905
0.384905
0.384905
0.384905
0.384906
0.384906
0.384906
0.384906
0.384906
0.384906
0.384906
0.384906
0.384906
0.384906
0.384906
0.384906
0.384906
0.384906
0.384906
0.384906
0.384906
0.384906
0.384906
0.384906
0.384906
0.384906
0.384906
0.384906
0.384906
0.384906
0.384906
0.384906
0.384906
0.384906
0.384906
0.384906
0.384906
0.384906
0.384906
0.384907
0.384907
0.384922
0.384938
0.385063
0.385063
1
-1
-0.892043
-0.781757
-0.688941
-0.614562
-0.556464
-0.511783
-0.477675
-0.451685
-0.431925
-0.417041
-0.406062
-0.398221
-0.392856
-0.389367
-0.387229
-0.386006
-0.385362
-0.385058
-0.384933
-0.384893
-0.384888
-0.384892
-0.384897
-0.384901
-0.384903
-0.384904
-0.384905
-0.384905
-0.384905
-0.384905
-0.384905
-0.384905
-0.384905
-0.384905
-0.384905
-0.384905
-0.384905
-0.384905
-0.384905
-0.384905
-0.384905
-0.384905
-0.384905
-0.384905
-0.384905
-0.384905
-0.384905
-0.384905
-0.384905
-0.384905
-0.384905
-0.384905
-0.384905
-0.384905
-0.384905
-0.384905
-0.384905
-0.384905
-0.384906
-0.384906
-0.384906
-0.384906
-0.384906
-0.384906
-0.384906
-0.384906
-0.384906
-0.384906
-0.384906
-0.384906
-0.384906
-0.384906
-0.384906
-0.384906
-0.384906
-0.384906
-0.384906
-0.384906
-0.384906
-0.384906
-0.384906
-0.384906
-0.384906
-0.384906
-0.384906
-0.384906
-0.384906
-0.384906
-0.384906
-0.384906
-0.384906
-0.384906
-0.384906
-0.384907
-0.384907
-0.384922
-0.384938
-0.385063
-0.385063
-1
