# vtk DataFile Version 2.0
FlowField
ASCII
DATASET STRUCTURED_GRID
DIMENSIONS 102 13 1 
POINTS 1326 double
0 0 0
0.3 0 0
0.6 0 0
0.9 0 0
1.2 0 0
1.5 0 0
1.8 0 0
2.1 0 0
2.4 0 0
2.7 0 0
3 0 0
3.3 0 0
3.6 0 0
3.9 0 0
4.2 0 0
4.5 0 0
4.8 0 0
5.1 0 0
5.4 0 0
5.7 0 0
6 0 0
6.3 0 0
6.6 0 0
6.9 0 0
7.2 0 0
7.5 0 0
7.8 0 0
8.1 0 0
8.4 0 0
8.7 0 0
9 0 0
9.3 0 0
9.6 0 0
9.9 0 0
10.2 0 0
10.5 0 0
10.8 0 0
11.1 0 0
11.4 0 0
11.7 0 0
12 0 0
12.3 0 0
12.6 0 0
12.9 0 0
13.2 0 0
13.5 0 0
13.8 0 0
14.1 0 0
14.4 0 0
14.7 0 0
15 0 0
15.3 0 0
15.6 0 0
15.9 0 0
16.2 0 0
16.5 0 0
16.8 0 0
17.1 0 0
17.4 0 0
17.7 0 0
18 0 0
18.3 0 0
18.6 0 0
18.9 0 0
19.2 0 0
19.5 0 0
19.8 0 0
20.1 0 0
20.4 0 0
20.7 0 0
21 0 0
21.3 0 0
21.6 0 0
21.9 0 0
22.2 0 0
22.5 0 0
22.8 0 0
23.1 0 0
23.4 0 0
23.7 0 0
24 0 0
24.3 0 0
24.6 0 0
24.9 0 0
25.2 0 0
25.5 0 0
25.8 0 0
26.1 0 0
26.4 0 0
26.7 0 0
27 0 0
27.3 0 0
27.6 0 0
27.9 0 0
28.2 0 0
28.5 0 0
28.8 0 0
29.1 0 0
29.4 0 0
29.7 0 0
30 0 0
30.3 0 0
0 0.1 0
0.3 0.1 0
0.6 0.1 0
0.9 0.1 0
1.2 0.1 0
1.5 0.1 0
1.8 0.1 0
2.1 0.1 0
2.4 0.1 0
2.7 0.1 0
3 0.1 0
3.3 0.1 0
3.6 0.1 0
3.9 0.1 0
4.2 0.1 0
4.5 0.1 0
4.8 0.1 0
5.1 0.1 0
5.4 0.1 0
5.7 0.1 0
6 0.1 0
6.3 0.1 0
6.6 0.1 0
6.9 0.1 0
7.2 0.1 0
7.5 0.1 0
7.8 0.1 0
8.1 0.1 0
8.4 0.1 0
8.7 0.1 0
9 0.1 0
9.3 0.1 0
9.6 0.1 0
9.9 0.1 0
10.2 0.1 0
10.5 0.1 0
10.8 0.1 0
11.1 0.1 0
11.4 0.1 0
11.7 0.1 0
12 0.1 0
12.3 0.1 0
12.6 0.1 0
12.9 0.1 0
13.2 0.1 0
13.5 0.1 0
13.8 0.1 0
14.1 0.1 0
14.4 0.1 0
14.7 0.1 0
15 0.1 0
15.3 0.1 0
15.6 0.1 0
15.9 0.1 0
16.2 0.1 0
16.5 0.1 0
16.8 0.1 0
17.1 0.1 0
17.4 0.1 0
17.7 0.1 0
18 0.1 0
18.3 0.1 0
18.6 0.1 0
18.9 0.1 0
19.2 0.1 0
19.5 0.1 0
19.8 0.1 0
20.1 0.1 0
20.4 0.1 0
20.7 0.1 0
21 0.1 0
21.3 0.1 0
21.6 0.1 0
21.9 0.1 0
22.2 0.1 0
22.5 0.1 0
22.8 0.1 0
23.1 0.1 0
23.4 0.1 0
23.7 0.1 0
24 0.1 0
24.3 0.1 0
24.6 0.1 0
24.9 0.1 0
25.2 0.1 0
25.5 0.1 0
25.8 0.1 0
26.1 0.1 0
26.4 0.1 0
26.7 0.1 0
27 0.1 0
27.3 0.1 0
27.6 0.1 0
27.9 0.1 0
28.2 0.1 0
28.5 0.1 0
28.8 0.1 0
29.1 0.1 0
29.4 0.1 0
29.7 0.1 0
30 0.1 0
30.3 0.1 0
0 0.2 0
0.3 0.2 0
0.6 0.2 0
0.9 0.2 0
1.2 0.2 0
1.5 0.2 0
1.8 0.2 0
2.1 0.2 0
2.4 0.2 0
2.7 0.2 0
3 0.2 0
3.3 0.2 0
3.6 0.2 0
3.9 0.2 0
4.2 0.2 0
4.5 0.2 0
4.8 0.2 0
5.1 0.2 0
5.4 0.2 0
5.7 0.2 0
6 0.2 0
6.3 0.2 0
6.6 0.2 0
6.9 0.2 0
7.2 0.2 0
7.5 0.2 0
7.8 0.2 0
8.1 0.2 0
8.4 0.2 0
8.7 0.2 0
9 0.2 0
9.3 0.2 0
9.6 0.2 0
9.9 0.2 0
10.2 0.2 0
10.5 0.2 0
10.8 0.2 0
11.1 0.2 0
11.4 0.2 0
11.7 0.2 0
12 0.2 0
12.3 0.2 0
12.6 0.2 0
12.9 0.2 0
13.2 0.2 0
13.5 0.2 0
13.8 0.2 0
14.1 0.2 0
14.4 0.2 0
14.7 0.2 0
15 0.2 0
15.3 0.2 0
15.6 0.2 0
15.9 0.2 0
16.2 0.2 0
16.5 0.2 0
16.8 0.2 0
17.1 0.2 0
17.4 0.2 0
17.7 0.2 0
18 0.2 0
18.3 0.2 0
18.6 0.2 0
18.9 0.2 0
19.2 0.2 0
19.5 0.2 0
19.8 0.2 0
20.1 0.2 0
20.4 0.2 0
20.7 0.2 0
21 0.2 0
21.3 0.2 0
21.6 0.2 0
21.9 0.2 0
22.2 0.2 0
22.5 0.2 0
22.8 0.2 0
23.1 0.2 0
23.4 0.2 0
23.7 0.2 0
24 0.2 0
24.3 0.2 0
24.6 0.2 0
24.9 0.2 0
25.2 0.2 0
25.5 0.2 0
25.8 0.2 0
26.1 0.2 0
26.4 0.2 0
26.7 0.2 0
27 0.2 0
27.3 0.2 0
27.6 0.2 0
27.9 0.2 0
28.2 0.2 0
28.5 0.2 0
28.8 0.2 0
29.1 0.2 0
29.4 0.2 0
29.7 0.2 0
30 0.2 0
30.3 0.2 0
0 0.3 0
0.3 0.3 0
0.6 0.3 0
0.9 0.3 0
1.2 0.3 0
1.5 0.3 0
1.8 0.3 0
2.1 0.3 0
2.4 0.3 0
2.7 0.3 0
3 0.3 0
3.3 0.3 0
3.6 0.3 0
3.9 0.3 0
4.2 0.3 0
4.5 0.3 0
4.8 0.3 0
5.1 0.3 0
5.4 0.3 0
5.7 0.3 0
6 0.3 0
6.3 0.3 0
6.6 0.3 0
6.9 0.3 0
7.2 0.3 0
7.5 0.3 0
7.8 0.3 0
8.1 0.3 0
8.4 0.3 0
8.7 0.3 0
9 0.3 0
9.3 0.3 0
9.6 0.3 0
9.9 0.3 0
10.2 0.3 0
10.5 0.3 0
10.8 0.3 0
11.1 0.3 0
11.4 0.3 0
11.7 0.3 0
12 0.3 0
12.3 0.3 0
12.6 0.3 0
12.9 0.3 0
13.2 0.3 0
13.5 0.3 0
13.8 0.3 0
14.1 0.3 0
14.4 0.3 0
14.7 0.3 0
15 0.3 0
15.3 0.3 0
15.6 0.3 0
15.9 0.3 0
16.2 0.3 0
16.5 0.3 0
16.8 0.3 0
17.1 0.3 0
17.4 0.3 0
17.7 0.3 0
18 0.3 0
18.3 0.3 0
18.6 0.3 0
18.9 0.3 0
19.2 0.3 0
19.5 0.3 0
19.8 0.3 0
20.1 0.3 0
20.4 0.3 0
20.7 0.3 0
21 0.3 0
21.3 0.3 0
21.6 0.3 0
21.9 0.3 0
22.2 0.3 0
22.5 0.3 0
22.8 0.3 0
23.1 0.3 0
23.4 0.3 0
23.7 0.3 0
24 0.3 0
24.3 0.3 0
24.6 0.3 0
24.9 0.3 0
25.2 0.3 0
25.5 0.3 0
25.8 0.3 0
26.1 0.3 0
26.4 0.3 0
26.7 0.3 0
27 0.3 0
27.3 0.3 0
27.6 0.3 0
27.9 0.3 0
28.2 0.3 0
28.5 0.3 0
28.8 0.3 0
29.1 0.3 0
29.4 0.3 0
29.7 0.3 0
30 0.3 0
30.3 0.3 0
0 0.4 0
0.3 0.4 0
0.6 0.4 0
0.9 0.4 0
1.2 0.4 0
1.5 0.4 0
1.8 0.4 0
2.1 0.4 0
2.4 0.4 0
2.7 0.4 0
3 0.4 0
3.3 0.4 0
3.6 0.4 0
3.9 0.4 0
4.2 0.4 0
4.5 0.4 0
4.8 0.4 0
5.1 0.4 0
5.4 0.4 0
5.7 0.4 0
6 0.4 0
6.3 0.4 0
6.6 0.4 0
6.9 0.4 0
7.2 0.4 0
7.5 0.4 0
7.8 0.4 0
8.1 0.4 0
8.4 0.4 0
8.7 0.4 0
9 0.4 0
9.3 0.4 0
9.6 0.4 0
9.9 0.4 0
10.2 0.4 0
10.5 0.4 0
10.8 0.4 0
11.1 0.4 0
11.4 0.4 0
11.7 0.4 0
12 0.4 0
12.3 0.4 0
12.6 0.4 0
12.9 0.4 0
13.2 0.4 0
13.5 0.4 0
13.8 0.4 0
14.1 0.4 0
14.4 0.4 0
14.7 0.4 0
15 0.4 0
15.3 0.4 0
15.6 0.4 0
15.9 0.4 0
16.2 0.4 0
16.5 0.4 0
16.8 0.4 0
17.1 0.4 0
17.4 0.4 0
17.7 0.4 0
18 0.4 0
18.3 0.4 0
18.6 0.4 0
18.9 0.4 0
19.2 0.4 0
19.5 0.4 0
19.8 0.4 0
20.1 0.4 0
20.4 0.4 0
20.7 0.4 0
21 0.4 0
21.3 0.4 0
21.6 0.4 0
21.9 0.4 0
22.2 0.4 0
22.5 0.4 0
22.8 0.4 0
23.1 0.4 0
23.4 0.4 0
23.7 0.4 0
24 0.4 0
24.3 0.4 0
24.6 0.4 0
24.9 0.4 0
25.2 0.4 0
25.5 0.4 0
25.8 0.4 0
26.1 0.4 0
26.4 0.4 0
26.7 0.4 0
27 0.4 0
27.3 0.4 0
27.6 0.4 0
27.9 0.4 0
28.2 0.4 0
28.5 0.4 0
28.8 0.4 0
29.1 0.4 0
29.4 0.4 0
29.7 0.4 0
30 0.4 0
30.3 0.4 0
0 0.5 0
0.3 0.5 0
0.6 0.5 0
0.9 0.5 0
1.2 0.5 0
1.5 0.5 0
1.8 0.5 0
2.1 0.5 0
2.4 0.5 0
2.7 0.5 0
3 0.5 0
3.3 0.5 0
3.6 0.5 0
3.9 0.5 0
4.2 0.5 0
4.5 0.5 0
4.8 0.5 0
5.1 0.5 0
5.4 0.5 0
5.7 0.5 0
6 0.5 0
6.3 0.5 0
6.6 0.5 0
6.9 0.5 0
7.2 0.5 0
7.5 0.5 0
7.8 0.5 0
8.1 0.5 0
8.4 0.5 0
8.7 0.5 0
9 0.5 0
9.3 0.5 0
9.6 0.5 0
9.9 0.5 0
10.2 0.5 0
10.5 0.5 0
10.8 0.5 0
11.1 0.5 0
11.4 0.5 0
11.7 0.5 0
12 0.5 0
12.3 0.5 0
12.6 0.5 0
12.9 0.5 0
13.2 0.5 0
13.5 0.5 0
13.8 0.5 0
14.1 0.5 0
14.4 0.5 0
14.7 0.5 0
15 0.5 0
15.3 0.5 0
15.6 0.5 0
15.9 0.5 0
16.2 0.5 0
16.5 0.5 0
16.8 0.5 0
17.1 0.5 0
17.4 0.5 0
17.7 0.5 0
18 0.5 0
18.3 0.5 0
18.6 0.5 0
18.9 0.5 0
19.2 0.5 0
19.5 0.5 0
19.8 0.5 0
20.1 0.5 0
20.4 0.5 0
20.7 0.5 0
21 0.5 0
21.3 0.5 0
21.6 0.5 0
21.9 0.5 0
22.2 0.5 0
22.5 0.5 0
22.8 0.5 0
23.1 0.5 0
23.4 0.5 0
23.7 0.5 0
24 0.5 0
24.3 0.5 0
24.6 0.5 0
24.9 0.5 0
25.2 0.5 0
25.5 0.5 0
25.8 0.5 0
26.1 0.5 0
26.4 0.5 0
26.7 0.5 0
27 0.5 0
27.3 0.5 0
27.6 0.5 0
27.9 0.5 0
28.2 0.5 0
28.5 0.5 0
28.8 0.5 0
29.1 0.5 0
29.4 0.5 0
29.7 0.5 0
30 0.5 0
30.3 0.5 0
0 0.6 0
0.3 0.6 0
0.6 0.6 0
0.9 0.6 0
1.2 0.6 0
1.5 0.6 0
1.8 0.6 0
2.1 0.6 0
2.4 0.6 0
2.7 0.6 0
3 0.6 0
3.3 0.6 0
3.6 0.6 0
3.9 0.6 0
4.2 0.6 0
4.5 0.6 0
4.8 0.6 0
5.1 0.6 0
5.4 0.6 0
5.7 0.6 0
6 0.6 0
6.3 0.6 0
6.6 0.6 0
6.9 0.6 0
7.2 0.6 0
7.5 0.6 0
7.8 0.6 0
8.1 0.6 0
8.4 0.6 0
8.7 0.6 0
9 0.6 0
9.3 0.6 0
9.6 0.6 0
9.9 0.6 0
10.2 0.6 0
10.5 0.6 0
10.8 0.6 0
11.1 0.6 0
11.4 0.6 0
11.7 0.6 0
12 0.6 0
12.3 0.6 0
12.6 0.6 0
12.9 0.6 0
13.2 0.6 0
13.5 0.6 0
13.8 0.6 0
14.1 0.6 0
14.4 0.6 0
14.7 0.6 0
15 0.6 0
15.3 0.6 0
15.6 0.6 0
15.9 0.6 0
16.2 0.6 0
16.5 0.6 0
16.8 0.6 0
17.1 0.6 0
17.4 0.6 0
17.7 0.6 0
18 0.6 0
18.3 0.6 0
18.6 0.6 0
18.9 0.6 0
19.2 0.6 0
19.5 0.6 0
19.8 0.6 0
20.1 0.6 0
20.4 0.6 0
20.7 0.6 0
21 0.6 0
21.3 0.6 0
21.6 0.6 0
21.9 0.6 0
22.2 0.6 0
22.5 0.6 0
22.8 0.6 0
23.1 0.6 0
23.4 0.6 0
23.7 0.6 0
24 0.6 0
24.3 0.6 0
24.6 0.6 0
24.9 0.6 0
25.2 0.6 0
25.5 0.6 0
25.8 0.6 0
26.1 0.6 0
26.4 0.6 0
26.7 0.6 0
27 0.6 0
27.3 0.6 0
27.6 0.6 0
27.9 0.6 0
28.2 0.6 0
28.5 0.6 0
28.8 0.6 0
29.1 0.6 0
29.4 0.6 0
29.7 0.6 0
30 0.6 0
30.3 0.6 0
0 0.7 0
0.3 0.7 0
0.6 0.7 0
0.9 0.7 0
1.2 0.7 0
1.5 0.7 0
1.8 0.7 0
2.1 0.7 0
2.4 0.7 0
2.7 0.7 0
3 0.7 0
3.3 0.7 0
3.6 0.7 0
3.9 0.7 0
4.2 0.7 0
4.5 0.7 0
4.8 0.7 0
5.1 0.7 0
5.4 0.7 0
5.7 0.7 0
6 0.7 0
6.3 0.7 0
6.6 0.7 0
6.9 0.7 0
7.2 0.7 0
7.5 0.7 0
7.8 0.7 0
8.1 0.7 0
8.4 0.7 0
8.7 0.7 0
9 0.7 0
9.3 0.7 0
9.6 0.7 0
9.9 0.7 0
10.2 0.7 0
10.5 0.7 0
10.8 0.7 0
11.1 0.7 0
11.4 0.7 0
11.7 0.7 0
12 0.7 0
12.3 0.7 0
12.6 0.7 0
12.9 0.7 0
13.2 0.7 0
13.5 0.7 0
13.8 0.7 0
14.1 0.7 0
14.4 0.7 0
14.7 0.7 0
15 0.7 0
15.3 0.7 0
15.6 0.7 0
15.9 0.7 0
16.2 0.7 0
16.5 0.7 0
16.8 0.7 0
17.1 0.7 0
17.4 0.7 0
17.7 0.7 0
18 0.7 0
18.3 0.7 0
18.6 0.7 0
18.9 0.7 0
19.2 0.7 0
19.5 0.7 0
19.8 0.7 0
20.1 0.7 0
20.4 0.7 0
20.7 0.7 0
21 0.7 0
21.3 0.7 0
21.6 0.7 0
21.9 0.7 0
22.2 0.7 0
22.5 0.7 0
22.8 0.7 0
23.1 0.7 0
23.4 0.7 0
23.7 0.7 0
24 0.7 0
24.3 0.7 0
24.6 0.7 0
24.9 0.7 0
25.2 0.7 0
25.5 0.7 0
25.8 0.7 0
26.1 0.7 0
26.4 0.7 0
26.7 0.7 0
27 0.7 0
27.3 0.7 0
27.6 0.7 0
27.9 0.7 0
28.2 0.7 0
28.5 0.7 0
28.8 0.7 0
29.1 0.7 0
29.4 0.7 0
29.7 0.7 0
30 0.7 0
30.3 0.7 0
0 0.8 0
0.3 0.8 0
0.6 0.8 0
0.9 0.8 0
1.2 0.8 0
1.5 0.8 0
1.8 0.8 0
2.1 0.8 0
2.4 0.8 0
2.7 0.8 0
3 0.8 0
3.3 0.8 0
3.6 0.8 0
3.9 0.8 0
4.2 0.8 0
4.5 0.8 0
4.8 0.8 0
5.1 0.8 0
5.4 0.8 0
5.7 0.8 0
6 0.8 0
6.3 0.8 0
6.6 0.8 0
6.9 0.8 0
7.2 0.8 0
7.5 0.8 0
7.8 0.8 0
8.1 0.8 0
8.4 0.8 0
8.7 0.8 0
9 0.8 0
9.3 0.8 0
9.6 0.8 0
9.9 0.8 0
10.2 0.8 0
10.5 0.8 0
10.8 0.8 0
11.1 0.8 0
11.4 0.8 0
11.7 0.8 0
12 0.8 0
12.3 0.8 0
12.6 0.8 0
12.9 0.8 0
13.2 0.8 0
13.5 0.8 0
13.8 0.8 0
14.1 0.8 0
14.4 0.8 0
14.7 0.8 0
15 0.8 0
15.3 0.8 0
15.6 0.8 0
15.9 0.8 0
16.2 0.8 0
16.5 0.8 0
16.8 0.8 0
17.1 0.8 0
17.4 0.8 0
17.7 0.8 0
18 0.8 0
18.3 0.8 0
18.6 0.8 0
18.9 0.8 0
19.2 0.8 0
19.5 0.8 0
19.8 0.8 0
20.1 0.8 0
20.4 0.8 0
20.7 0.8 0
21 0.8 0
21.3 0.8 0
21.6 0.8 0
21.9 0.8 0
22.2 0.8 0
22.5 0.8 0
22.8 0.8 0
23.1 0.8 0
23.4 0.8 0
23.7 0.8 0
24 0.8 0
24.3 0.8 0
24.6 0.8 0
24.9 0.8 0
25.2 0.8 0
25.5 0.8 0
25.8 0.8 0
26.1 0.8 0
26.4 0.8 0
26.7 0.8 0
27 0.8 0
27.3 0.8 0
27.6 0.8 0
27.9 0.8 0
28.2 0.8 0
28.5 0.8 0
28.8 0.8 0
29.1 0.8 0
29.4 0.8 0
29.7 0.8 0
30 0.8 0
30.3 0.8 0
0 0.9 0
0.3 0.9 0
0.6 0.9 0
0.9 0.9 0
1.2 0.9 0
1.5 0.9 0
1.8 0.9 0
2.1 0.9 0
2.4 0.9 0
2.7 0.9 0
3 0.9 0
3.3 0.9 0
3.6 0.9 0
3.9 0.9 0
4.2 0.9 0
4.5 0.9 0
4.8 0.9 0
5.1 0.9 0
5.4 0.9 0
5.7 0.9 0
6 0.9 0
6.3 0.9 0
6.6 0.9 0
6.9 0.9 0
7.2 0.9 0
7.5 0.9 0
7.8 0.9 0
8.1 0.9 0
8.4 0.9 0
8.7 0.9 0
9 0.9 0
9.3 0.9 0
9.6 0.9 0
9.9 0.9 0
10.2 0.9 0
10.5 0.9 0
10.8 0.9 0
11.1 0.9 0
11.4 0.9 0
11.7 0.9 0
12 0.9 0
12.3 0.9 0
12.6 0.9 0
12.9 0.9 0
13.2 0.9 0
13.5 0.9 0
13.8 0.9 0
14.1 0.9 0
14.4 0.9 0
14.7 0.9 0
15 0.9 0
15.3 0.9 0
15.6 0.9 0
15.9 0.9 0
16.2 0.9 0
16.5 0.9 0
16.8 0.9 0
17.1 0.9 0
17.4 0.9 0
17.7 0.9 0
18 0.9 0
18.3 0.9 0
18.6 0.9 0
18.9 0.9 0
19.2 0.9 0
19.5 0.9 0
19.8 0.9 0
20.1 0.9 0
20.4 0.9 0
20.7 0.9 0
21 0.9 0
21.3 0.9 0
21.6 0.9 0
21.9 0.9 0
22.2 0.9 0
22.5 0.9 0
22.8 0.9 0
23.1 0.9 0
23.4 0.9 0
23.7 0.9 0
24 0.9 0
24.3 0.9 0
24.6 0.9 0
24.9 0.9 0
25.2 0.9 0
25.5 0.9 0
25.8 0.9 0
26.1 0.9 0
26.4 0.9 0
26.7 0.9 0
27 0.9 0
27.3 0.9 0
27.6 0.9 0
27.9 0.9 0
28.2 0.9 0
28.5 0.9 0
28.8 0.9 0
29.1 0.9 0
29.4 0.9 0
29.7 0.9 0
30 0.9 0
30.3 0.9 0
0 1 0
0.3 1 0
0.6 1 0
0.9 1 0
1.2 1 0
1.5 1 0
1.8 1 0
2.1 1 0
2.4 1 0
2.7 1 0
3 1 0
3.3 1 0
3.6 1 0
3.9 1 0
4.2 1 0
4.5 1 0
4.8 1 0
5.1 1 0
5.4 1 0
5.7 1 0
6 1 0
6.3 1 0
6.6 1 0
6.9 1 0
7.2 1 0
7.5 1 0
7.8 1 0
8.1 1 0
8.4 1 0
8.7 1 0
9 1 0
9.3 1 0
9.6 1 0
9.9 1 0
10.2 1 0
10.5 1 0
10.8 1 0
11.1 1 0
11.4 1 0
11.7 1 0
12 1 0
12.3 1 0
12.6 1 0
12.9 1 0
13.2 1 0
13.5 1 0
13.8 1 0
14.1 1 0
14.4 1 0
14.7 1 0
15 1 0
15.3 1 0
15.6 1 0
15.9 1 0
16.2 1 0
16.5 1 0
16.8 1 0
17.1 1 0
17.4 1 0
17.7 1 0
18 1 0
18.3 1 0
18.6 1 0
18.9 1 0
19.2 1 0
19.5 1 0
19.8 1 0
20.1 1 0
20.4 1 0
20.7 1 0
21 1 0
21.3 1 0
21.6 1 0
21.9 1 0
22.2 1 0
22.5 1 0
22.8 1 0
23.1 1 0
23.4 1 0
23.7 1 0
24 1 0
24.3 1 0
24.6 1 0
24.9 1 0
25.2 1 0
25.5 1 0
25.8 1 0
26.1 1 0
26.4 1 0
26.7 1 0
27 1 0
27.3 1 0
27.6 1 0
27.9 1 0
28.2 1 0
28.5 1 0
28.8 1 0
29.1 1 0
29.4 1 0
29.7 1 0
30 1 0
30.3 1 0
0 1.1 0
0.3 1.1 0
0.6 1.1 0
0.9 1.1 0
1.2 1.1 0
1.5 1.1 0
1.8 1.1 0
2.1 1.1 0
2.4 1.1 0
2.7 1.1 0
3 1.1 0
3.3 1.1 0
3.6 1.1 0
3.9 1.1 0
4.2 1.1 0
4.5 1.1 0
4.8 1.1 0
5.1 1.1 0
5.4 1.1 0
5.7 1.1 0
6 1.1 0
6.3 1.1 0
6.6 1.1 0
6.9 1.1 0
7.2 1.1 0
7.5 1.1 0
7.8 1.1 0
8.1 1.1 0
8.4 1.1 0
8.7 1.1 0
9 1.1 0
9.3 1.1 0
9.6 1.1 0
9.9 1.1 0
10.2 1.1 0
10.5 1.1 0
10.8 1.1 0
11.1 1.1 0
11.4 1.1 0
11.7 1.1 0
12 1.1 0
12.3 1.1 0
12.6 1.1 0
12.9 1.1 0
13.2 1.1 0
13.5 1.1 0
13.8 1.1 0
14.1 1.1 0
14.4 1.1 0
14.7 1.1 0
15 1.1 0
15.3 1.1 0
15.6 1.1 0
15.9 1.1 0
16.2 1.1 0
16.5 1.1 0
16.8 1.1 0
17.1 1.1 0
17.4 1.1 0
17.7 1.1 0
18 1.1 0
18.3 1.1 0
18.6 1.1 0
18.9 1.1 0
19.2 1.1 0
19.5 1.1 0
19.8 1.1 0
20.1 1.1 0
20.4 1.1 0
20.7 1.1 0
21 1.1 0
21.3 1.1 0
21.6 1.1 0
21.9 1.1 0
22.2 1.1 0
22.5 1.1 0
22.8 1.1 0
23.1 1.1 0
23.4 1.1 0
23.7 1.1 0
24 1.1 0
24.3 1.1 0
24.6 1.1 0
24.9 1.1 0
25.2 1.1 0
25.5 1.1 0
25.8 1.1 0
26.1 1.1 0
26.4 1.1 0
26.7 1.1 0
27 1.1 0
27.3 1.1 0
27.6 1.1 0
27.9 1.1 0
28.2 1.1 0
28.5 1.1 0
28.8 1.1 0
29.1 1.1 0
29.4 1.1 0
29.7 1.1 0
30 1.1 0
30.3 1.1 0
0 1.2 0
0.3 1.2 0
0.6 1.2 0
0.9 1.2 0
1.2 1.2 0
1.5 1.2 0
1.8 1.2 0
2.1 1.2 0
2.4 1.2 0
2.7 1.2 0
3 1.2 0
3.3 1.2 0
3.6 1.2 0
3.9 1.2 0
4.2 1.2 0
4.5 1.2 0
4.8 1.2 0
5.1 1.2 0
5.4 1.2 0
5.7 1.2 0
6 1.2 0
6.3 1.2 0
6.6 1.2 0
6.9 1.2 0
7.2 1.2 0
7.5 1.2 0
7.8 1.2 0
8.1 1.2 0
8.4 1.2 0
8.7 1.2 0
9 1.2 0
9.3 1.2 0
9.6 1.2 0
9.9 1.2 0
10.2 1.2 0
10.5 1.2 0
10.8 1.2 0
11.1 1.2 0
11.4 1.2 0
11.7 1.2 0
12 1.2 0
12.3 1.2 0
12.6 1.2 0
12.9 1.2 0
13.2 1.2 0
13.5 1.2 0
13.8 1.2 0
14.1 1.2 0
14.4 1.2 0
14.7 1.2 0
15 1.2 0
15.3 1.2 0
15.6 1.2 0
15.9 1.2 0
16.2 1.2 0
16.5 1.2 0
16.8 1.2 0
17.1 1.2 0
17.4 1.2 0
17.7 1.2 0
18 1.2 0
18.3 1.2 0
18.6 1.2 0
18.9 1.2 0
19.2 1.2 0
19.5 1.2 0
19.8 1.2 0
20.1 1.2 0
20.4 1.2 0
20.7 1.2 0
21 1.2 0
21.3 1.2 0
21.6 1.2 0
21.9 1.2 0
22.2 1.2 0
22.5 1.2 0
22.8 1.2 0
23.1 1.2 0
23.4 1.2 0
23.7 1.2 0
24 1.2 0
24.3 1.2 0
24.6 1.2 0
24.9 1.2 0
25.2 1.2 0
25.5 1.2 0
25.8 1.2 0
26.1 1.2 0
26.4 1.2 0
26.7 1.2 0
27 1.2 0
27.3 1.2 0
27.6 1.2 0
27.9 1.2 0
28.2 1.2 0
28.5 1.2 0
28.8 1.2 0
29.1 1.2 0
29.4 1.2 0
29.7 1.2 0
30 1.2 0
30.3 1.2 0

POINT_DATA 1326

SCALARS u double
LOOKUP_TABLE default
-1
-0.88876
-0.771421
-0.670527
-0.588769
-0.524805
-0.475963
-0.439215
-0.411696
-0.390984
-0.375178
-0.362869
-0.353049
-0.345017
-0.338292
-0.332544
-0.327544
-0.323134
-0.3192
-0.315662
-0.312456
-0.309535
-0.306863
-0.304408
-0.302147
-0.300058
-0.298124
-0.296329
-0.29466
-0.293106
-0.291657
-0.290304
-0.289038
-0.287854
-0.286743
-0.285702
-0.284724
-0.283804
-0.282939
-0.282125
-0.281358
-0.280636
-0.279956
-0.279318
-0.278719
-0.278161
-0.277641
-0.277161
-0.27672
-0.276318
-0.275954
-0.275629
-0.275341
-0.275088
-0.274868
-0.27468
-0.27452
-0.274386
-0.274275
-0.274184
-0.274111
-0.274052
-0.274006
-0.273969
-0.273941
-0.27392
-0.273904
-0.273892
-0.273883
-0.273877
-0.273872
-0.273869
-0.273867
-0.273865
-0.273864
-0.273863
-0.273863
-0.273863
-0.273862
-0.273862
-0.273862
-0.273862
-0.273862
-0.273862
-0.273862
-0.273862
-0.273862
-0.273862
-0.273862
-0.273862
-0.273862
-0.273862
-0.273862
-0.273862
-0.273862
-0.273862
-0.273862
-0.273863
-0.273864
-0.273863
-0.273863
-1
1
0.88876
0.771421
0.670527
0.588769
0.524805
0.475963
0.439215
0.411696
0.390984
0.375178
0.362869
0.353049
0.345017
0.338292
0.332544
0.327544
0.323134
0.3192
0.315662
0.312456
0.309535
0.306863
0.304408
0.302147
0.300058
0.298124
0.296329
0.29466
0.293106
0.291657
0.290304
0.289038
0.287854
0.286743
0.285702
0.284724
0.283804
0.282939
0.282125
0.281358
0.280636
0.279956
0.279318
0.278719
0.278161
0.277641
0.277161
0.27672
0.276318
0.275954
0.275629
0.275341
0.275088
0.274868
0.27468
0.27452
0.274386
0.274275
0.274184
0.274111
0.274052
0.274006
0.273969
0.273941
0.27392
0.273904
0.273892
0.273883
0.273877
0.273872
0.273869
0.273867
0.273865
0.273864
0.273863
0.273863
0.273863
0.273862
0.273862
0.273862
0.273862
0.273862
0.273862
0.273862
0.273862
0.273862
0.273862
0.273862
0.273862
0.273862
0.273862
0.273862
0.273862
0.273862
0.273862
0.273862
0.273863
0.273864
0.273863
0.273863
1
1
1.02648
1.02759
1.01578
0.998001
0.977893
0.957443
0.937721
0.919251
0.902242
0.886726
0.872643
0.859893
0.848355
0.837908
0.828437
0.819836
0.812006
0.804863
0.79833
0.792341
0.786837
0.781769
0.777091
0.772764
0.768755
0.765034
0.761574
0.758353
0.755349
0.752545
0.749924
0.747472
0.745175
0.743022
0.741001
0.739104
0.73732
0.735644
0.734067
0.732584
0.731191
0.729883
0.728658
0.727513
0.726449
0.725463
0.724556
0.723727
0.722975
0.722299
0.721697
0.721166
0.720702
0.720302
0.71996
0.719671
0.71943
0.719231
0.719069
0.718939
0.718835
0.718754
0.71869
0.718642
0.718605
0.718577
0.718556
0.718541
0.718531
0.718523
0.718517
0.718513
0.718511
0.718509
0.718507
0.718507
0.718506
0.718506
0.718505
0.718505
0.718505
0.718505
0.718505
0.718505
0.718505
0.718505
0.718505
0.718505
0.718505
0.718505
0.718505
0.718505
0.718505
0.718505
0.718505
0.718505
0.718506
0.718506
0.718523
0.718523
1
1
1.03148
1.06334
1.08875
1.10753
1.1205
1.12878
1.13347
1.13551
1.13567
1.13453
1.13251
1.12991
1.12695
1.12378
1.12051
1.11721
1.11394
1.11073
1.10761
1.10459
1.10169
1.0989
1.09625
1.09371
1.0913
1.08901
1.08684
1.08478
1.08282
1.08098
1.07923
1.07757
1.076
1.07452
1.07312
1.0718
1.07055
1.06937
1.06825
1.0672
1.0662
1.06526
1.06438
1.06355
1.06278
1.06206
1.06139
1.06077
1.06021
1.05969
1.05923
1.05881
1.05844
1.05812
1.05784
1.0576
1.0574
1.05723
1.05709
1.05697
1.05688
1.0568
1.05674
1.0567
1.05666
1.05663
1.05661
1.0566
1.05659
1.05658
1.05657
1.05657
1.05657
1.05657
1.05656
1.05656
1.05656
1.05656
1.05656
1.05656
1.05656
1.05656
1.05656
1.05656
1.05656
1.05656
1.05656
1.05656
1.05656
1.05656
1.05656
1.05656
1.05656
1.05656
1.05656
1.05656
1.05656
1.05656
1.05658
1.05658
1
1
1.02429
1.05912
1.09356
1.12437
1.15061
1.17234
1.19008
1.2045
1.21627
1.22596
1.23403
1.24081
1.24658
1.25152
1.2558
1.25951
1.26276
1.26561
1.26812
1.27034
1.2723
1.27405
1.27561
1.27701
1.27826
1.27938
1.28039
1.28131
1.28213
1.28289
1.28357
1.2842
1.28477
1.28529
1.28578
1.28622
1.28663
1.28701
1.28736
1.28768
1.28799
1.28827
1.28852
1.28876
1.28898
1.28918
1.28935
1.28951
1.28965
1.28977
1.28987
1.28995
1.29002
1.29008
1.29012
1.29015
1.29018
1.29019
1.2902
1.29021
1.29021
1.29021
1.29021
1.29021
1.29021
1.29021
1.2902
1.2902
1.2902
1.2902
1.2902
1.2902
1.2902
1.2902
1.2902
1.2902
1.2902
1.2902
1.2902
1.2902
1.2902
1.2902
1.2902
1.2902
1.2902
1.2902
1.2902
1.2902
1.2902
1.2902
1.2902
1.2902
1.2902
1.2902
1.2902
1.2902
1.2902
1.29019
1.29019
1.29019
1
1
1.01979
1.05308
1.08837
1.1216
1.15133
1.17726
1.19964
1.21895
1.23573
1.25048
1.26359
1.27537
1.28606
1.29583
1.30481
1.31311
1.32079
1.32793
1.33458
1.34077
1.34656
1.35196
1.35702
1.36175
1.36619
1.37035
1.37426
1.37792
1.38137
1.3846
1.38765
1.39051
1.39321
1.39575
1.39814
1.4004
1.40253
1.40453
1.40642
1.4082
1.40988
1.41147
1.41295
1.41434
1.41565
1.41685
1.41797
1.419
1.41994
1.42079
1.42156
1.42224
1.42284
1.42336
1.42381
1.42419
1.42452
1.42479
1.42501
1.42519
1.42534
1.42546
1.42555
1.42562
1.42567
1.42572
1.42575
1.42577
1.42579
1.4258
1.42581
1.42581
1.42582
1.42582
1.42582
1.42583
1.42583
1.42583
1.42583
1.42583
1.42583
1.42583
1.42583
1.42583
1.42583
1.42583
1.42583
1.42583
1.42583
1.42583
1.42583
1.42583
1.42583
1.42583
1.42583
1.42583
1.42583
1.42583
1.42581
1.42581
1
1
1.01839
1.05092
1.08603
1.11947
1.14972
1.17641
1.19975
1.22017
1.23818
1.25424
1.26873
1.28194
1.29409
1.30534
1.3158
1.32558
1.33474
1.34334
1.35142
1.35901
1.36617
1.3729
1.37925
1.38524
1.39088
1.3962
1.40122
1.40596
1.41044
1.41466
1.41865
1.42242
1.42597
1.42933
1.43251
1.43551
1.43835
1.44102
1.44356
1.44595
1.44821
1.45034
1.45234
1.45422
1.45598
1.45762
1.45914
1.46054
1.46183
1.46299
1.46405
1.46499
1.46582
1.46655
1.46718
1.46773
1.46819
1.46857
1.4689
1.46916
1.46937
1.46955
1.46968
1.46979
1.46987
1.46994
1.46998
1.47002
1.47005
1.47006
1.47008
1.47009
1.4701
1.4701
1.4701
1.47011
1.47011
1.47011
1.47011
1.47011
1.47011
1.47011
1.47011
1.47011
1.47011
1.47011
1.47011
1.47011
1.47011
1.47011
1.47011
1.47011
1.47011
1.47011
1.47011
1.47011
1.47011
1.47011
1.47009
1.47009
1
1
1.01979
1.05308
1.08837
1.1216
1.15133
1.17726
1.19964
1.21895
1.23573
1.25048
1.26359
1.27537
1.28606
1.29583
1.30481
1.31311
1.32079
1.32793
1.33458
1.34077
1.34656
1.35196
1.35702
1.36175
1.36619
1.37035
1.37426
1.37792
1.38137
1.3846
1.38765
1.39051
1.39321
1.39575
1.39814
1.4004
1.40253
1.40453
1.40642
1.40821
1.40989
1.41147
1.41295
1.41435
1.41565
1.41686
1.41797
1.419
1.41994
1.42079
1.42156
1.42224
1.42284
1.42336
1.42381
1.42419
1.42452
1.42479
1.42501
1.42519
1.42534
1.42546
1.42555
1.42562
1.42567
1.42572
1.42575
1.42577
1.42579
1.4258
1.42581
1.42581
1.42582
1.42582
1.42582
1.42583
1.42583
1.42583
1.42583
1.42583
1.42583
1.42583
1.42583
1.42583
1.42583
1.42583
1.42583
1.42583
1.42583
1.42583
1.42583
1.42583
1.42583
1.42583
1.42583
1.42583
1.42583
1.42583
1.42581
1.42581
1
1
1.02429
1.05912
1.09356
1.12437
1.15061
1.17234
1.19008
1.2045
1.21627
1.22596
1.23403
1.24081
1.24658
1.25152
1.2558
1.25951
1.26276
1.26561
1.26812
1.27034
1.2723
1.27405
1.27561
1.27701
1.27826
1.27938
1.28039
1.28131
1.28214
1.28289
1.28357
1.2842
1.28477
1.28529
1.28578
1.28622
1.28663
1.28701
1.28736
1.28768
1.28799
1.28827
1.28852
1.28876
1.28898
1.28918
1.28935
1.28951
1.28965
1.28977
1.28987
1.28995
1.29002
1.29008
1.29012
1.29015
1.29018
1.29019
1.2902
1.29021
1.29021
1.29021
1.29021
1.29021
1.29021
1.29021
1.2902
1.2902
1.2902
1.2902
1.2902
1.2902
1.2902
1.2902
1.2902
1.2902
1.2902
1.2902
1.2902
1.2902
1.2902
1.2902
1.2902
1.2902
1.2902
1.2902
1.2902
1.2902
1.2902
1.2902
1.2902
1.2902
1.2902
1.2902
1.2902
1.2902
1.2902
1.29019
1.29019
1.29019
1
1
1.03148
1.06334
1.08875
1.10753
1.1205
1.12878
1.13347
1.13551
1.13567
1.13453
1.13251
1.12991
1.12695
1.12378
1.12051
1.11721
1.11394
1.11073
1.10761
1.10459
1.10169
1.09891
1.09625
1.09371
1.0913
1.08901
1.08684
1.08478
1.08283
1.08098
1.07923
1.07757
1.076
1.07452
1.07312
1.0718
1.07055
1.06937
1.06825
1.0672
1.0662
1.06526
1.06438
1.06355
1.06278
1.06206
1.06139
1.06077
1.06021
1.05969
1.05923
1.05881
1.05845
1.05812
1.05784
1.0576
1.0574
1.05723
1.05709
1.05697
1.05688
1.0568
1.05674
1.0567
1.05666
1.05664
1.05662
1.0566
1.05659
1.05658
1.05658
1.05657
1.05657
1.05657
1.05656
1.05656
1.05656
1.05656
1.05656
1.05656
1.05656
1.05656
1.05656
1.05656
1.05656
1.05656
1.05656
1.05656
1.05656
1.05656
1.05656
1.05656
1.05656
1.05656
1.05656
1.05656
1.05656
1.05656
1.05658
1.05658
1
1
1.02648
1.02759
1.01578
0.998002
0.977893
0.957443
0.937721
0.919252
0.902242
0.886726
0.872644
0.859893
0.848355
0.837909
0.828438
0.819836
0.812006
0.804863
0.79833
0.792341
0.786838
0.781769
0.777091
0.772765
0.768756
0.765035
0.761575
0.758354
0.75535
0.752546
0.749925
0.747473
0.745176
0.743022
0.741002
0.739104
0.737321
0.735645
0.734068
0.732585
0.731192
0.729884
0.728658
0.727514
0.72645
0.725464
0.724557
0.723728
0.722976
0.7223
0.721698
0.721167
0.720703
0.720303
0.719961
0.719672
0.719431
0.719232
0.71907
0.71894
0.718836
0.718755
0.718691
0.718643
0.718606
0.718578
0.718557
0.718542
0.718531
0.718523
0.718518
0.718514
0.718511
0.718509
0.718508
0.718507
0.718507
0.718506
0.718506
0.718506
0.718506
0.718506
0.718506
0.718506
0.718505
0.718505
0.718505
0.718505
0.718505
0.718505
0.718505
0.718505
0.718505
0.718505
0.718505
0.718505
0.718506
0.718506
0.718523
0.718523
1
1
0.88876
0.771421
0.670527
0.588769
0.524805
0.475963
0.439215
0.411697
0.390985
0.375179
0.362869
0.353049
0.345017
0.338292
0.332544
0.327544
0.323134
0.319201
0.315662
0.312456
0.309536
0.306863
0.304409
0.302147
0.300058
0.298124
0.296329
0.29466
0.293106
0.291657
0.290304
0.289038
0.287854
0.286744
0.285702
0.284724
0.283805
0.28294
0.282125
0.281358
0.280636
0.279957
0.279318
0.27872
0.278161
0.277641
0.277161
0.27672
0.276318
0.275955
0.27563
0.275341
0.275088
0.274869
0.27468
0.274521
0.274387
0.274276
0.274185
0.274111
0.274052
0.274006
0.27397
0.273942
0.273921
0.273905
0.273893
0.273884
0.273878
0.273873
0.27387
0.273867
0.273866
0.273865
0.273864
0.273863
0.273863
0.273863
0.273862
0.273862
0.273862
0.273862
0.273862
0.273862
0.273862
0.273862
0.273862
0.273862
0.273862
0.273862
0.273862
0.273862
0.273862
0.273862
0.273862
0.273862
0.273863
0.273864
0.273863
0.273863
1
-1
-0.88876
-0.771421
-0.670527
-0.588769
-0.524805
-0.475963
-0.439215
-0.411697
-0.390985
-0.375179
-0.362869
-0.353049
-0.345017
-0.338292
-0.332544
-0.327544
-0.323134
-0.319201
-0.315662
-0.312456
-0.309536
-0.306863
-0.304409
-0.302147
-0.300058
-0.298124
-0.296329
-0.29466
-0.293106
-0.291657
-0.290304
-0.289038
-0.287854
-0.286744
-0.285702
-0.284724
-0.283805
-0.28294
-0.282125
-0.281358
-0.280636
-0.279957
-0.279318
-0.27872
-0.278161
-0.277641
-0.277161
-0.27672
-0.276318
-0.275955
-0.27563
-0.275341
-0.275088
-0.274869
-0.27468
-0.274521
-0.274387
-0.274276
-0.274185
-0.274111
-0.274052
-0.274006
-0.27397
-0.273942
-0.273921
-0.273905
-0.273893
-0.273884
-0.273878
-0.273873
-0.27387
-0.273867
-0.273866
-0.273865
-0.273864
-0.273863
-0.273863
-0.273863
-0.273862
-0.273862
-0.273862
-0.273862
-0.273862
-0.273862
-0.273862
-0.273862
-0.273862
-0.273862
-0.273862
-0.273862
-0.273862
-0.273862
-0.273862
-0.273862
-0.273862
-0.273862
-0.273863
-0.273864
-0.273863
-0.273863
-1
