# vtk DataFile Version 2.0
FlowField
ASCII
DATASET STRUCTURED_GRID
DIMENSIONS 101 11 1 
POINTS 1111 double
0 0 0
0.3 0 0
0.6 0 0
0.9 0 0
1.2 0 0
1.5 0 0
1.8 0 0
2.1 0 0
2.4 0 0
2.7 0 0
3 0 0
3.3 0 0
3.6 0 0
3.9 0 0
4.2 0 0
4.5 0 0
4.8 0 0
5.1 0 0
5.4 0 0
5.7 0 0
6 0 0
6.3 0 0
6.6 0 0
6.9 0 0
7.2 0 0
7.5 0 0
7.8 0 0
8.1 0 0
8.4 0 0
8.7 0 0
9 0 0
9.3 0 0
9.6 0 0
9.9 0 0
10.2 0 0
10.5 0 0
10.8 0 0
11.1 0 0
11.4 0 0
11.7 0 0
12 0 0
12.3 0 0
12.6 0 0
12.9 0 0
13.2 0 0
13.5 0 0
13.8 0 0
14.1 0 0
14.4 0 0
14.7 0 0
15 0 0
15.3 0 0
15.6 0 0
15.9 0 0
16.2 0 0
16.5 0 0
16.8 0 0
17.1 0 0
17.4 0 0
17.7 0 0
18 0 0
18.3 0 0
18.6 0 0
18.9 0 0
19.2 0 0
19.5 0 0
19.8 0 0
20.1 0 0
20.4 0 0
20.7 0 0
21 0 0
21.3 0 0
21.6 0 0
21.9 0 0
22.2 0 0
22.5 0 0
22.8 0 0
23.1 0 0
23.4 0 0
23.7 0 0
24 0 0
24.3 0 0
24.6 0 0
24.9 0 0
25.2 0 0
25.5 0 0
25.8 0 0
26.1 0 0
26.4 0 0
26.7 0 0
27 0 0
27.3 0 0
27.6 0 0
27.9 0 0
28.2 0 0
28.5 0 0
28.8 0 0
29.1 0 0
29.4 0 0
29.7 0 0
30 0 0
0 0.1 0
0.3 0.1 0
0.6 0.1 0
0.9 0.1 0
1.2 0.1 0
1.5 0.1 0
1.8 0.1 0
2.1 0.1 0
2.4 0.1 0
2.7 0.1 0
3 0.1 0
3.3 0.1 0
3.6 0.1 0
3.9 0.1 0
4.2 0.1 0
4.5 0.1 0
4.8 0.1 0
5.1 0.1 0
5.4 0.1 0
5.7 0.1 0
6 0.1 0
6.3 0.1 0
6.6 0.1 0
6.9 0.1 0
7.2 0.1 0
7.5 0.1 0
7.8 0.1 0
8.1 0.1 0
8.4 0.1 0
8.7 0.1 0
9 0.1 0
9.3 0.1 0
9.6 0.1 0
9.9 0.1 0
10.2 0.1 0
10.5 0.1 0
10.8 0.1 0
11.1 0.1 0
11.4 0.1 0
11.7 0.1 0
12 0.1 0
12.3 0.1 0
12.6 0.1 0
12.9 0.1 0
13.2 0.1 0
13.5 0.1 0
13.8 0.1 0
14.1 0.1 0
14.4 0.1 0
14.7 0.1 0
15 0.1 0
15.3 0.1 0
15.6 0.1 0
15.9 0.1 0
16.2 0.1 0
16.5 0.1 0
16.8 0.1 0
17.1 0.1 0
17.4 0.1 0
17.7 0.1 0
18 0.1 0
18.3 0.1 0
18.6 0.1 0
18.9 0.1 0
19.2 0.1 0
19.5 0.1 0
19.8 0.1 0
20.1 0.1 0
20.4 0.1 0
20.7 0.1 0
21 0.1 0
21.3 0.1 0
21.6 0.1 0
21.9 0.1 0
22.2 0.1 0
22.5 0.1 0
22.8 0.1 0
23.1 0.1 0
23.4 0.1 0
23.7 0.1 0
24 0.1 0
24.3 0.1 0
24.6 0.1 0
24.9 0.1 0
25.2 0.1 0
25.5 0.1 0
25.8 0.1 0
26.1 0.1 0
26.4 0.1 0
26.7 0.1 0
27 0.1 0
27.3 0.1 0
27.6 0.1 0
27.9 0.1 0
28.2 0.1 0
28.5 0.1 0
28.8 0.1 0
29.1 0.1 0
29.4 0.1 0
29.7 0.1 0
30 0.1 0
0 0.2 0
0.3 0.2 0
0.6 0.2 0
0.9 0.2 0
1.2 0.2 0
1.5 0.2 0
1.8 0.2 0
2.1 0.2 0
2.4 0.2 0
2.7 0.2 0
3 0.2 0
3.3 0.2 0
3.6 0.2 0
3.9 0.2 0
4.2 0.2 0
4.5 0.2 0
4.8 0.2 0
5.1 0.2 0
5.4 0.2 0
5.7 0.2 0
6 0.2 0
6.3 0.2 0
6.6 0.2 0
6.9 0.2 0
7.2 0.2 0
7.5 0.2 0
7.8 0.2 0
8.1 0.2 0
8.4 0.2 0
8.7 0.2 0
9 0.2 0
9.3 0.2 0
9.6 0.2 0
9.9 0.2 0
10.2 0.2 0
10.5 0.2 0
10.8 0.2 0
11.1 0.2 0
11.4 0.2 0
11.7 0.2 0
12 0.2 0
12.3 0.2 0
12.6 0.2 0
12.9 0.2 0
13.2 0.2 0
13.5 0.2 0
13.8 0.2 0
14.1 0.2 0
14.4 0.2 0
14.7 0.2 0
15 0.2 0
15.3 0.2 0
15.6 0.2 0
15.9 0.2 0
16.2 0.2 0
16.5 0.2 0
16.8 0.2 0
17.1 0.2 0
17.4 0.2 0
17.7 0.2 0
18 0.2 0
18.3 0.2 0
18.6 0.2 0
18.9 0.2 0
19.2 0.2 0
19.5 0.2 0
19.8 0.2 0
20.1 0.2 0
20.4 0.2 0
20.7 0.2 0
21 0.2 0
21.3 0.2 0
21.6 0.2 0
21.9 0.2 0
22.2 0.2 0
22.5 0.2 0
22.8 0.2 0
23.1 0.2 0
23.4 0.2 0
23.7 0.2 0
24 0.2 0
24.3 0.2 0
24.6 0.2 0
24.9 0.2 0
25.2 0.2 0
25.5 0.2 0
25.8 0.2 0
26.1 0.2 0
26.4 0.2 0
26.7 0.2 0
27 0.2 0
27.3 0.2 0
27.6 0.2 0
27.9 0.2 0
28.2 0.2 0
28.5 0.2 0
28.8 0.2 0
29.1 0.2 0
29.4 0.2 0
29.7 0.2 0
30 0.2 0
0 0.3 0
0.3 0.3 0
0.6 0.3 0
0.9 0.3 0
1.2 0.3 0
1.5 0.3 0
1.8 0.3 0
2.1 0.3 0
2.4 0.3 0
2.7 0.3 0
3 0.3 0
3.3 0.3 0
3.6 0.3 0
3.9 0.3 0
4.2 0.3 0
4.5 0.3 0
4.8 0.3 0
5.1 0.3 0
5.4 0.3 0
5.7 0.3 0
6 0.3 0
6.3 0.3 0
6.6 0.3 0
6.9 0.3 0
7.2 0.3 0
7.5 0.3 0
7.8 0.3 0
8.1 0.3 0
8.4 0.3 0
8.7 0.3 0
9 0.3 0
9.3 0.3 0
9.6 0.3 0
9.9 0.3 0
10.2 0.3 0
10.5 0.3 0
10.8 0.3 0
11.1 0.3 0
11.4 0.3 0
11.7 0.3 0
12 0.3 0
12.3 0.3 0
12.6 0.3 0
12.9 0.3 0
13.2 0.3 0
13.5 0.3 0
13.8 0.3 0
14.1 0.3 0
14.4 0.3 0
14.7 0.3 0
15 0.3 0
15.3 0.3 0
15.6 0.3 0
15.9 0.3 0
16.2 0.3 0
16.5 0.3 0
16.8 0.3 0
17.1 0.3 0
17.4 0.3 0
17.7 0.3 0
18 0.3 0
18.3 0.3 0
18.6 0.3 0
18.9 0.3 0
19.2 0.3 0
19.5 0.3 0
19.8 0.3 0
20.1 0.3 0
20.4 0.3 0
20.7 0.3 0
21 0.3 0
21.3 0.3 0
21.6 0.3 0
21.9 0.3 0
22.2 0.3 0
22.5 0.3 0
22.8 0.3 0
23.1 0.3 0
23.4 0.3 0
23.7 0.3 0
24 0.3 0
24.3 0.3 0
24.6 0.3 0
24.9 0.3 0
25.2 0.3 0
25.5 0.3 0
25.8 0.3 0
26.1 0.3 0
26.4 0.3 0
26.7 0.3 0
27 0.3 0
27.3 0.3 0
27.6 0.3 0
27.9 0.3 0
28.2 0.3 0
28.5 0.3 0
28.8 0.3 0
29.1 0.3 0
29.4 0.3 0
29.7 0.3 0
30 0.3 0
0 0.4 0
0.3 0.4 0
0.6 0.4 0
0.9 0.4 0
1.2 0.4 0
1.5 0.4 0
1.8 0.4 0
2.1 0.4 0
2.4 0.4 0
2.7 0.4 0
3 0.4 0
3.3 0.4 0
3.6 0.4 0
3.9 0.4 0
4.2 0.4 0
4.5 0.4 0
4.8 0.4 0
5.1 0.4 0
5.4 0.4 0
5.7 0.4 0
6 0.4 0
6.3 0.4 0
6.6 0.4 0
6.9 0.4 0
7.2 0.4 0
7.5 0.4 0
7.8 0.4 0
8.1 0.4 0
8.4 0.4 0
8.7 0.4 0
9 0.4 0
9.3 0.4 0
9.6 0.4 0
9.9 0.4 0
10.2 0.4 0
10.5 0.4 0
10.8 0.4 0
11.1 0.4 0
11.4 0.4 0
11.7 0.4 0
12 0.4 0
12.3 0.4 0
12.6 0.4 0
12.9 0.4 0
13.2 0.4 0
13.5 0.4 0
13.8 0.4 0
14.1 0.4 0
14.4 0.4 0
14.7 0.4 0
15 0.4 0
15.3 0.4 0
15.6 0.4 0
15.9 0.4 0
16.2 0.4 0
16.5 0.4 0
16.8 0.4 0
17.1 0.4 0
17.4 0.4 0
17.7 0.4 0
18 0.4 0
18.3 0.4 0
18.6 0.4 0
18.9 0.4 0
19.2 0.4 0
19.5 0.4 0
19.8 0.4 0
20.1 0.4 0
20.4 0.4 0
20.7 0.4 0
21 0.4 0
21.3 0.4 0
21.6 0.4 0
21.9 0.4 0
22.2 0.4 0
22.5 0.4 0
22.8 0.4 0
23.1 0.4 0
23.4 0.4 0
23.7 0.4 0
24 0.4 0
24.3 0.4 0
24.6 0.4 0
24.9 0.4 0
25.2 0.4 0
25.5 0.4 0
25.8 0.4 0
26.1 0.4 0
26.4 0.4 0
26.7 0.4 0
27 0.4 0
27.3 0.4 0
27.6 0.4 0
27.9 0.4 0
28.2 0.4 0
28.5 0.4 0
28.8 0.4 0
29.1 0.4 0
29.4 0.4 0
29.7 0.4 0
30 0.4 0
0 0.5 0
0.3 0.5 0
0.6 0.5 0
0.9 0.5 0
1.2 0.5 0
1.5 0.5 0
1.8 0.5 0
2.1 0.5 0
2.4 0.5 0
2.7 0.5 0
3 0.5 0
3.3 0.5 0
3.6 0.5 0
3.9 0.5 0
4.2 0.5 0
4.5 0.5 0
4.8 0.5 0
5.1 0.5 0
5.4 0.5 0
5.7 0.5 0
6 0.5 0
6.3 0.5 0
6.6 0.5 0
6.9 0.5 0
7.2 0.5 0
7.5 0.5 0
7.8 0.5 0
8.1 0.5 0
8.4 0.5 0
8.7 0.5 0
9 0.5 0
9.3 0.5 0
9.6 0.5 0
9.9 0.5 0
10.2 0.5 0
10.5 0.5 0
10.8 0.5 0
11.1 0.5 0
11.4 0.5 0
11.7 0.5 0
12 0.5 0
12.3 0.5 0
12.6 0.5 0
12.9 0.5 0
13.2 0.5 0
13.5 0.5 0
13.8 0.5 0
14.1 0.5 0
14.4 0.5 0
14.7 0.5 0
15 0.5 0
15.3 0.5 0
15.6 0.5 0
15.9 0.5 0
16.2 0.5 0
16.5 0.5 0
16.8 0.5 0
17.1 0.5 0
17.4 0.5 0
17.7 0.5 0
18 0.5 0
18.3 0.5 0
18.6 0.5 0
18.9 0.5 0
19.2 0.5 0
19.5 0.5 0
19.8 0.5 0
20.1 0.5 0
20.4 0.5 0
20.7 0.5 0
21 0.5 0
21.3 0.5 0
21.6 0.5 0
21.9 0.5 0
22.2 0.5 0
22.5 0.5 0
22.8 0.5 0
23.1 0.5 0
23.4 0.5 0
23.7 0.5 0
24 0.5 0
24.3 0.5 0
24.6 0.5 0
24.9 0.5 0
25.2 0.5 0
25.5 0.5 0
25.8 0.5 0
26.1 0.5 0
26.4 0.5 0
26.7 0.5 0
27 0.5 0
27.3 0.5 0
27.6 0.5 0
27.9 0.5 0
28.2 0.5 0
28.5 0.5 0
28.8 0.5 0
29.1 0.5 0
29.4 0.5 0
29.7 0.5 0
30 0.5 0
0 0.6 0
0.3 0.6 0
0.6 0.6 0
0.9 0.6 0
1.2 0.6 0
1.5 0.6 0
1.8 0.6 0
2.1 0.6 0
2.4 0.6 0
2.7 0.6 0
3 0.6 0
3.3 0.6 0
3.6 0.6 0
3.9 0.6 0
4.2 0.6 0
4.5 0.6 0
4.8 0.6 0
5.1 0.6 0
5.4 0.6 0
5.7 0.6 0
6 0.6 0
6.3 0.6 0
6.6 0.6 0
6.9 0.6 0
7.2 0.6 0
7.5 0.6 0
7.8 0.6 0
8.1 0.6 0
8.4 0.6 0
8.7 0.6 0
9 0.6 0
9.3 0.6 0
9.6 0.6 0
9.9 0.6 0
10.2 0.6 0
10.5 0.6 0
10.8 0.6 0
11.1 0.6 0
11.4 0.6 0
11.7 0.6 0
12 0.6 0
12.3 0.6 0
12.6 0.6 0
12.9 0.6 0
13.2 0.6 0
13.5 0.6 0
13.8 0.6 0
14.1 0.6 0
14.4 0.6 0
14.7 0.6 0
15 0.6 0
15.3 0.6 0
15.6 0.6 0
15.9 0.6 0
16.2 0.6 0
16.5 0.6 0
16.8 0.6 0
17.1 0.6 0
17.4 0.6 0
17.7 0.6 0
18 0.6 0
18.3 0.6 0
18.6 0.6 0
18.9 0.6 0
19.2 0.6 0
19.5 0.6 0
19.8 0.6 0
20.1 0.6 0
20.4 0.6 0
20.7 0.6 0
21 0.6 0
21.3 0.6 0
21.6 0.6 0
21.9 0.6 0
22.2 0.6 0
22.5 0.6 0
22.8 0.6 0
23.1 0.6 0
23.4 0.6 0
23.7 0.6 0
24 0.6 0
24.3 0.6 0
24.6 0.6 0
24.9 0.6 0
25.2 0.6 0
25.5 0.6 0
25.8 0.6 0
26.1 0.6 0
26.4 0.6 0
26.7 0.6 0
27 0.6 0
27.3 0.6 0
27.6 0.6 0
27.9 0.6 0
28.2 0.6 0
28.5 0.6 0
28.8 0.6 0
29.1 0.6 0
29.4 0.6 0
29.7 0.6 0
30 0.6 0
0 0.7 0
0.3 0.7 0
0.6 0.7 0
0.9 0.7 0
1.2 0.7 0
1.5 0.7 0
1.8 0.7 0
2.1 0.7 0
2.4 0.7 0
2.7 0.7 0
3 0.7 0
3.3 0.7 0
3.6 0.7 0
3.9 0.7 0
4.2 0.7 0
4.5 0.7 0
4.8 0.7 0
5.1 0.7 0
5.4 0.7 0
5.7 0.7 0
6 0.7 0
6.3 0.7 0
6.6 0.7 0
6.9 0.7 0
7.2 0.7 0
7.5 0.7 0
7.8 0.7 0
8.1 0.7 0
8.4 0.7 0
8.7 0.7 0
9 0.7 0
9.3 0.7 0
9.6 0.7 0
9.9 0.7 0
10.2 0.7 0
10.5 0.7 0
10.8 0.7 0
11.1 0.7 0
11.4 0.7 0
11.7 0.7 0
12 0.7 0
12.3 0.7 0
12.6 0.7 0
12.9 0.7 0
13.2 0.7 0
13.5 0.7 0
13.8 0.7 0
14.1 0.7 0
14.4 0.7 0
14.7 0.7 0
15 0.7 0
15.3 0.7 0
15.6 0.7 0
15.9 0.7 0
16.2 0.7 0
16.5 0.7 0
16.8 0.7 0
17.1 0.7 0
17.4 0.7 0
17.7 0.7 0
18 0.7 0
18.3 0.7 0
18.6 0.7 0
18.9 0.7 0
19.2 0.7 0
19.5 0.7 0
19.8 0.7 0
20.1 0.7 0
20.4 0.7 0
20.7 0.7 0
21 0.7 0
21.3 0.7 0
21.6 0.7 0
21.9 0.7 0
22.2 0.7 0
22.5 0.7 0
22.8 0.7 0
23.1 0.7 0
23.4 0.7 0
23.7 0.7 0
24 0.7 0
24.3 0.7 0
24.6 0.7 0
24.9 0.7 0
25.2 0.7 0
25.5 0.7 0
25.8 0.7 0
26.1 0.7 0
26.4 0.7 0
26.7 0.7 0
27 0.7 0
27.3 0.7 0
27.6 0.7 0
27.9 0.7 0
28.2 0.7 0
28.5 0.7 0
28.8 0.7 0
29.1 0.7 0
29.4 0.7 0
29.7 0.7 0
30 0.7 0
0 0.8 0
0.3 0.8 0
0.6 0.8 0
0.9 0.8 0
1.2 0.8 0
1.5 0.8 0
1.8 0.8 0
2.1 0.8 0
2.4 0.8 0
2.7 0.8 0
3 0.8 0
3.3 0.8 0
3.6 0.8 0
3.9 0.8 0
4.2 0.8 0
4.5 0.8 0
4.8 0.8 0
5.1 0.8 0
5.4 0.8 0
5.7 0.8 0
6 0.8 0
6.3 0.8 0
6.6 0.8 0
6.9 0.8 0
7.2 0.8 0
7.5 0.8 0
7.8 0.8 0
8.1 0.8 0
8.4 0.8 0
8.7 0.8 0
9 0.8 0
9.3 0.8 0
9.6 0.8 0
9.9 0.8 0
10.2 0.8 0
10.5 0.8 0
10.8 0.8 0
11.1 0.8 0
11.4 0.8 0
11.7 0.8 0
12 0.8 0
12.3 0.8 0
12.6 0.8 0
12.9 0.8 0
13.2 0.8 0
13.5 0.8 0
13.8 0.8 0
14.1 0.8 0
14.4 0.8 0
14.7 0.8 0
15 0.8 0
15.3 0.8 0
15.6 0.8 0
15.9 0.8 0
16.2 0.8 0
16.5 0.8 0
16.8 0.8 0
17.1 0.8 0
17.4 0.8 0
17.7 0.8 0
18 0.8 0
18.3 0.8 0
18.6 0.8 0
18.9 0.8 0
19.2 0.8 0
19.5 0.8 0
19.8 0.8 0
20.1 0.8 0
20.4 0.8 0
20.7 0.8 0
21 0.8 0
21.3 0.8 0
21.6 0.8 0
21.9 0.8 0
22.2 0.8 0
22.5 0.8 0
22.8 0.8 0
23.1 0.8 0
23.4 0.8 0
23.7 0.8 0
24 0.8 0
24.3 0.8 0
24.6 0.8 0
24.9 0.8 0
25.2 0.8 0
25.5 0.8 0
25.8 0.8 0
26.1 0.8 0
26.4 0.8 0
26.7 0.8 0
27 0.8 0
27.3 0.8 0
27.6 0.8 0
27.9 0.8 0
28.2 0.8 0
28.5 0.8 0
28.8 0.8 0
29.1 0.8 0
29.4 0.8 0
29.7 0.8 0
30 0.8 0
0 0.9 0
0.3 0.9 0
0.6 0.9 0
0.9 0.9 0
1.2 0.9 0
1.5 0.9 0
1.8 0.9 0
2.1 0.9 0
2.4 0.9 0
2.7 0.9 0
3 0.9 0
3.3 0.9 0
3.6 0.9 0
3.9 0.9 0
4.2 0.9 0
4.5 0.9 0
4.8 0.9 0
5.1 0.9 0
5.4 0.9 0
5.7 0.9 0
6 0.9 0
6.3 0.9 0
6.6 0.9 0
6.9 0.9 0
7.2 0.9 0
7.5 0.9 0
7.8 0.9 0
8.1 0.9 0
8.4 0.9 0
8.7 0.9 0
9 0.9 0
9.3 0.9 0
9.6 0.9 0
9.9 0.9 0
10.2 0.9 0
10.5 0.9 0
10.8 0.9 0
11.1 0.9 0
11.4 0.9 0
11.7 0.9 0
12 0.9 0
12.3 0.9 0
12.6 0.9 0
12.9 0.9 0
13.2 0.9 0
13.5 0.9 0
13.8 0.9 0
14.1 0.9 0
14.4 0.9 0
14.7 0.9 0
15 0.9 0
15.3 0.9 0
15.6 0.9 0
15.9 0.9 0
16.2 0.9 0
16.5 0.9 0
16.8 0.9 0
17.1 0.9 0
17.4 0.9 0
17.7 0.9 0
18 0.9 0
18.3 0.9 0
18.6 0.9 0
18.9 0.9 0
19.2 0.9 0
19.5 0.9 0
19.8 0.9 0
20.1 0.9 0
20.4 0.9 0
20.7 0.9 0
21 0.9 0
21.3 0.9 0
21.6 0.9 0
21.9 0.9 0
22.2 0.9 0
22.5 0.9 0
22.8 0.9 0
23.1 0.9 0
23.4 0.9 0
23.7 0.9 0
24 0.9 0
24.3 0.9 0
24.6 0.9 0
24.9 0.9 0
25.2 0.9 0
25.5 0.9 0
25.8 0.9 0
26.1 0.9 0
26.4 0.9 0
26.7 0.9 0
27 0.9 0
27.3 0.9 0
27.6 0.9 0
27.9 0.9 0
28.2 0.9 0
28.5 0.9 0
28.8 0.9 0
29.1 0.9 0
29.4 0.9 0
29.7 0.9 0
30 0.9 0
0 1 0
0.3 1 0
0.6 1 0
0.9 1 0
1.2 1 0
1.5 1 0
1.8 1 0
2.1 1 0
2.4 1 0
2.7 1 0
3 1 0
3.3 1 0
3.6 1 0
3.9 1 0
4.2 1 0
4.5 1 0
4.8 1 0
5.1 1 0
5.4 1 0
5.7 1 0
6 1 0
6.3 1 0
6.6 1 0
6.9 1 0
7.2 1 0
7.5 1 0
7.8 1 0
8.1 1 0
8.4 1 0
8.7 1 0
9 1 0
9.3 1 0
9.6 1 0
9.9 1 0
10.2 1 0
10.5 1 0
10.8 1 0
11.1 1 0
11.4 1 0
11.7 1 0
12 1 0
12.3 1 0
12.6 1 0
12.9 1 0
13.2 1 0
13.5 1 0
13.8 1 0
14.1 1 0
14.4 1 0
14.7 1 0
15 1 0
15.3 1 0
15.6 1 0
15.9 1 0
16.2 1 0
16.5 1 0
16.8 1 0
17.1 1 0
17.4 1 0
17.7 1 0
18 1 0
18.3 1 0
18.6 1 0
18.9 1 0
19.2 1 0
19.5 1 0
19.8 1 0
20.1 1 0
20.4 1 0
20.7 1 0
21 1 0
21.3 1 0
21.6 1 0
21.9 1 0
22.2 1 0
22.5 1 0
22.8 1 0
23.1 1 0
23.4 1 0
23.7 1 0
24 1 0
24.3 1 0
24.6 1 0
24.9 1 0
25.2 1 0
25.5 1 0
25.8 1 0
26.1 1 0
26.4 1 0
26.7 1 0
27 1 0
27.3 1 0
27.6 1 0
27.9 1 0
28.2 1 0
28.5 1 0
28.8 1 0
29.1 1 0
29.4 1 0
29.7 1 0
30 1 0

POINT_DATA 1111

SCALARS p double
LOOKUP_TABLE default
1.52523
1.52523
1.4565
1.4058
1.35897
1.31552
1.27587
1.23998
1.2075
1.17791
1.15068
1.12534
1.10149
1.07884
1.05717
1.03628
1.01605
0.996387
0.977203
0.958442
0.940054
0.922003
0.90426
0.886804
0.869617
0.852687
0.836005
0.819559
0.803336
0.78732
0.771491
0.755828
0.740306
0.724901
0.709589
0.694349
0.679163
0.664016
0.648896
0.633795
0.618705
0.603624
0.588546
0.573472
0.558399
0.543327
0.528256
0.513184
0.498113
0.483042
0.467971
0.452899
0.437828
0.422757
0.407686
0.392615
0.377543
0.362472
0.347401
0.33233
0.317259
0.302187
0.287116
0.272045
0.256974
0.241903
0.226831
0.21176
0.196689
0.181618
0.166547
0.151475
0.136404
0.121333
0.106262
0.0911906
0.0761194
0.0610482
0.045977
0.0309058
0.0158346
0.000763417
-0.0143078
-0.029379
-0.0444501
-0.0595213
-0.0745925
-0.0896637
-0.104735
-0.119806
-0.134877
-0.149948
-0.16502
-0.180091
-0.195162
-0.210233
-0.225304
-0.240375
-0.255446
-0.2705
0.2705
1.52523
1.52523
1.4565
1.4058
1.35897
1.31552
1.27587
1.23998
1.2075
1.17791
1.15068
1.12534
1.10149
1.07884
1.05717
1.03628
1.01605
0.996387
0.977203
0.958442
0.940054
0.922003
0.90426
0.886804
0.869617
0.852687
0.836005
0.819559
0.803336
0.78732
0.771491
0.755828
0.740306
0.724901
0.709589
0.694349
0.679163
0.664016
0.648896
0.633795
0.618705
0.603624
0.588546
0.573472
0.558399
0.543327
0.528256
0.513184
0.498113
0.483042
0.467971
0.452899
0.437828
0.422757
0.407686
0.392615
0.377543
0.362472
0.347401
0.33233
0.317259
0.302187
0.287116
0.272045
0.256974
0.241903
0.226831
0.21176
0.196689
0.181618
0.166547
0.151475
0.136404
0.121333
0.106262
0.0911906
0.0761194
0.0610482
0.045977
0.0309058
0.0158346
0.000763417
-0.0143078
-0.029379
-0.0444501
-0.0595213
-0.0745925
-0.0896637
-0.104735
-0.119806
-0.134877
-0.149948
-0.16502
-0.180091
-0.195162
-0.210233
-0.225304
-0.240375
-0.255446
-0.2705
0.2705
1.50497
1.50497
1.45493
1.4062
1.35969
1.31626
1.27652
1.24052
1.20793
1.17825
1.15094
1.12554
1.10165
1.07897
1.05727
1.03636
1.01612
0.996447
0.977255
0.958487
0.940094
0.922038
0.90429
0.886829
0.869638
0.852705
0.836019
0.819569
0.803343
0.787324
0.771493
0.755829
0.740306
0.7249
0.709588
0.694348
0.679162
0.664015
0.648895
0.633794
0.618705
0.603623
0.588546
0.573472
0.558399
0.543327
0.528256
0.513184
0.498113
0.483042
0.467971
0.452899
0.437828
0.422757
0.407686
0.392615
0.377543
0.362472
0.347401
0.33233
0.317259
0.302187
0.287116
0.272045
0.256974
0.241903
0.226831
0.21176
0.196689
0.181618
0.166547
0.151475
0.136404
0.121333
0.106262
0.0911906
0.0761194
0.0610482
0.045977
0.0309058
0.0158346
0.000763417
-0.0143078
-0.029379
-0.0444501
-0.0595213
-0.0745925
-0.0896637
-0.104735
-0.119806
-0.134877
-0.149948
-0.16502
-0.180091
-0.195162
-0.210233
-0.225304
-0.240375
-0.255446
-0.2705
0.2705
1.49137
1.49137
1.45286
1.40674
1.36081
1.31744
1.27758
1.24141
1.20864
1.1788
1.15136
1.12585
1.10189
1.07915
1.05741
1.03647
1.01621
0.996519
0.977315
0.958538
0.940137
0.922075
0.904322
0.886857
0.869662
0.852725
0.836036
0.819583
0.803354
0.787333
0.7715
0.755833
0.740309
0.724902
0.709589
0.694348
0.679162
0.664015
0.648895
0.633794
0.618705
0.603623
0.588546
0.573472
0.558399
0.543327
0.528256
0.513184
0.498113
0.483042
0.467971
0.452899
0.437828
0.422757
0.407686
0.392615
0.377543
0.362472
0.347401
0.33233
0.317259
0.302187
0.287116
0.272045
0.256974
0.241903
0.226831
0.21176
0.196689
0.181618
0.166547
0.151475
0.136404
0.121333
0.106262
0.0911906
0.0761194
0.0610482
0.045977
0.0309058
0.0158346
0.000763417
-0.0143078
-0.029379
-0.0444501
-0.0595213
-0.0745925
-0.0896637
-0.104735
-0.119806
-0.134877
-0.149948
-0.16502
-0.180091
-0.195162
-0.210233
-0.225304
-0.240374
-0.255439
-0.270496
0.270496
1.48387
1.48387
1.45138
1.40711
1.36165
1.31836
1.27844
1.24214
1.20923
1.17927
1.15172
1.12614
1.10211
1.07933
1.05755
1.03658
1.0163
0.996596
0.97738
0.958593
0.940185
0.922117
0.90436
0.88689
0.869692
0.852753
0.836061
0.819605
0.803373
0.78735
0.771514
0.755845
0.740318
0.724909
0.709594
0.694352
0.679165
0.664017
0.648897
0.633795
0.618705
0.603624
0.588546
0.573472
0.558399
0.543327
0.528256
0.513184
0.498113
0.483042
0.467971
0.452899
0.437828
0.422757
0.407686
0.392615
0.377543
0.362472
0.347401
0.33233
0.317259
0.302187
0.287116
0.272045
0.256974
0.241903
0.226831
0.21176
0.196689
0.181618
0.166547
0.151475
0.136404
0.121333
0.106262
0.0911906
0.0761194
0.0610482
0.045977
0.0309058
0.0158346
0.000763417
-0.0143078
-0.029379
-0.0444501
-0.0595213
-0.0745925
-0.0896637
-0.104735
-0.119806
-0.134877
-0.149948
-0.16502
-0.180091
-0.195162
-0.210233
-0.225303
-0.240372
-0.255428
-0.270492
0.270492
1.48149
1.48149
1.45088
1.40726
1.36197
1.31871
1.27876
1.24242
1.20946
1.17945
1.15187
1.12625
1.1022
1.0794
1.05761
1.03663
1.01634
0.99663
0.977409
0.958618
0.940207
0.922137
0.904378
0.886907
0.869707
0.852767
0.836073
0.819617
0.803384
0.787359
0.771522
0.755852
0.740324
0.724913
0.709597
0.694355
0.679167
0.664018
0.648897
0.633795
0.618706
0.603624
0.588546
0.573472
0.558399
0.543327
0.528256
0.513184
0.498113
0.483042
0.467971
0.452899
0.437828
0.422757
0.407686
0.392615
0.377543
0.362472
0.347401
0.33233
0.317259
0.302187
0.287116
0.272045
0.256974
0.241903
0.226831
0.21176
0.196689
0.181618
0.166547
0.151475
0.136404
0.121333
0.106262
0.0911906
0.0761194
0.0610482
0.045977
0.0309058
0.0158346
0.000763417
-0.0143078
-0.029379
-0.0444501
-0.0595213
-0.0745925
-0.0896637
-0.104735
-0.119806
-0.134877
-0.149948
-0.16502
-0.180091
-0.195162
-0.210233
-0.225303
-0.240371
-0.255422
-0.27049
0.27049
1.48387
1.48387
1.45138
1.40711
1.36165
1.31836
1.27844
1.24214
1.20923
1.17927
1.15172
1.12614
1.10211
1.07933
1.05755
1.03658
1.0163
0.996596
0.97738
0.958593
0.940185
0.922117
0.90436
0.88689
0.869692
0.852753
0.836061
0.819605
0.803373
0.78735
0.771514
0.755845
0.740318
0.724909
0.709594
0.694352
0.679165
0.664017
0.648897
0.633795
0.618705
0.603624
0.588546
0.573472
0.558399
0.543327
0.528256
0.513184
0.498113
0.483042
0.467971
0.452899
0.437828
0.422757
0.407686
0.392615
0.377543
0.362472
0.347401
0.33233
0.317259
0.302187
0.287116
0.272045
0.256974
0.241903
0.226831
0.21176
0.196689
0.181618
0.166547
0.151475
0.136404
0.121333
0.106262
0.0911906
0.0761194
0.0610482
0.045977
0.0309058
0.0158346
0.000763418
-0.0143078
-0.029379
-0.0444501
-0.0595213
-0.0745925
-0.0896637
-0.104735
-0.119806
-0.134877
-0.149948
-0.16502
-0.180091
-0.195162
-0.210233
-0.225303
-0.240372
-0.255428
-0.270492
0.270492
1.49137
1.49137
1.45286
1.40674
1.36081
1.31744
1.27758
1.24141
1.20864
1.1788
1.15136
1.12585
1.10189
1.07915
1.05741
1.03647
1.01621
0.996519
0.977315
0.958538
0.940137
0.922075
0.904322
0.886857
0.869662
0.852725
0.836036
0.819583
0.803354
0.787333
0.7715
0.755833
0.740309
0.724902
0.709589
0.694348
0.679162
0.664015
0.648895
0.633794
0.618705
0.603623
0.588546
0.573472
0.558399
0.543327
0.528256
0.513184
0.498113
0.483042
0.467971
0.452899
0.437828
0.422757
0.407686
0.392615
0.377543
0.362472
0.347401
0.33233
0.317259
0.302187
0.287116
0.272045
0.256974
0.241903
0.226831
0.21176
0.196689
0.181618
0.166547
0.151475
0.136404
0.121333
0.106262
0.0911906
0.0761194
0.0610482
0.045977
0.0309058
0.0158346
0.000763418
-0.0143078
-0.029379
-0.0444501
-0.0595213
-0.0745925
-0.0896637
-0.104735
-0.119806
-0.134877
-0.149948
-0.16502
-0.180091
-0.195162
-0.210233
-0.225304
-0.240374
-0.255439
-0.270496
0.270496
1.50497
1.50497
1.45493
1.4062
1.35969
1.31626
1.27652
1.24052
1.20793
1.17825
1.15094
1.12554
1.10165
1.07897
1.05727
1.03636
1.01612
0.996447
0.977255
0.958487
0.940094
0.922038
0.90429
0.886829
0.869638
0.852705
0.836019
0.819569
0.803343
0.787324
0.771493
0.755829
0.740306
0.7249
0.709588
0.694348
0.679162
0.664015
0.648895
0.633794
0.618705
0.603623
0.588546
0.573472
0.558399
0.543327
0.528256
0.513184
0.498113
0.483042
0.467971
0.452899
0.437828
0.422757
0.407686
0.392615
0.377543
0.362472
0.347401
0.33233
0.317259
0.302187
0.287116
0.272045
0.256974
0.241903
0.226831
0.21176
0.196689
0.181618
0.166547
0.151475
0.136404
0.121333
0.106262
0.0911906
0.0761194
0.0610482
0.045977
0.0309058
0.0158346
0.000763418
-0.0143078
-0.029379
-0.0444501
-0.0595213
-0.0745925
-0.0896637
-0.104735
-0.119806
-0.134877
-0.149948
-0.16502
-0.180091
-0.195162
-0.210233
-0.225304
-0.240375
-0.255446
-0.2705
0.2705
1.52523
1.52523
1.4565
1.4058
1.35897
1.31552
1.27587
1.23998
1.2075
1.17791
1.15068
1.12534
1.10149
1.07884
1.05717
1.03628
1.01605
0.996387
0.977203
0.958442
0.940054
0.922003
0.90426
0.886804
0.869617
0.852687
0.836005
0.819559
0.803336
0.78732
0.771491
0.755828
0.740306
0.724901
0.709589
0.694349
0.679163
0.664016
0.648896
0.633795
0.618705
0.603624
0.588546
0.573472
0.558399
0.543327
0.528256
0.513184
0.498113
0.483042
0.467971
0.452899
0.437828
0.422757
0.407686
0.392615
0.377543
0.362472
0.347401
0.33233
0.317259
0.302187
0.287116
0.272045
0.256974
0.241903
0.226831
0.21176
0.196689
0.181618
0.166547
0.151475
0.136404
0.121333
0.106262
0.0911906
0.0761194
0.0610482
0.045977
0.0309058
0.0158346
0.000763418
-0.0143078
-0.029379
-0.0444501
-0.0595213
-0.0745925
-0.0896637
-0.104735
-0.119806
-0.134877
-0.149948
-0.16502
-0.180091
-0.195162
-0.210233
-0.225304
-0.240375
-0.255446
-0.2705
0.2705
1.52523
1.52523
1.4565
1.4058
1.35897
1.31552
1.27587
1.23998
1.2075
1.17791
1.15068
1.12534
1.10149
1.07884
1.05717
1.03628
1.01605
0.996387
0.977203
0.958442
0.940054
0.922003
0.90426
0.886804
0.869617
0.852687
0.836005
0.819559
0.803336
0.78732
0.771491
0.755828
0.740306
0.724901
0.709589
0.694349
0.679163
0.664016
0.648896
0.633795
0.618705
0.603624
0.588546
0.573472
0.558399
0.543327
0.528256
0.513184
0.498113
0.483042
0.467971
0.452899
0.437828
0.422757
0.407686
0.392615
0.377543
0.362472
0.347401
0.33233
0.317259
0.302187
0.287116
0.272045
0.256974
0.241903
0.226831
0.21176
0.196689
0.181618
0.166547
0.151475
0.136404
0.121333
0.106262
0.0911906
0.0761194
0.0610482
0.045977
0.0309058
0.0158346
0.000763418
-0.0143078
-0.029379
-0.0444501
-0.0595213
-0.0745925
-0.0896637
-0.104735
-0.119806
-0.134877
-0.149948
-0.16502
-0.180091
-0.195162
-0.210233
-0.225304
-0.240375
-0.255446
-0.2705
0.2705
