# vtk DataFile Version 2.0
FlowField
ASCII
DATASET STRUCTURED_GRID
DIMENSIONS 102 1 12 
POINTS 1224 double
0 0 0
0.4 0 0
0.8 0 0
1.2 0 0
1.6 0 0
2 0 0
2.4 0 0
2.8 0 0
3.2 0 0
3.6 0 0
4 0 0
4.4 0 0
4.8 0 0
5.2 0 0
5.6 0 0
6 0 0
6.4 0 0
6.8 0 0
7.2 0 0
7.6 0 0
8 0 0
8.4 0 0
8.8 0 0
9.2 0 0
9.6 0 0
10 0 0
10.4 0 0
10.8 0 0
11.2 0 0
11.6 0 0
12 0 0
12.4 0 0
12.8 0 0
13.2 0 0
13.6 0 0
14 0 0
14.4 0 0
14.8 0 0
15.2 0 0
15.6 0 0
16 0 0
16.4 0 0
16.8 0 0
17.2 0 0
17.6 0 0
18 0 0
18.4 0 0
18.8 0 0
19.2 0 0
19.6 0 0
20 0 0
20.4 0 0
20.8 0 0
21.2 0 0
21.6 0 0
22 0 0
22.4 0 0
22.8 0 0
23.2 0 0
23.6 0 0
24 0 0
24.4 0 0
24.8 0 0
25.2 0 0
25.6 0 0
26 0 0
26.4 0 0
26.8 0 0
27.2 0 0
27.6 0 0
28 0 0
28.4 0 0
28.8 0 0
29.2 0 0
29.6 0 0
30 0 0
30.4 0 0
30.8 0 0
31.2 0 0
31.6 0 0
32 0 0
32.4 0 0
32.8 0 0
33.2 0 0
33.6 0 0
34 0 0
34.4 0 0
34.8 0 0
35.2 0 0
35.6 0 0
36 0 0
36.4 0 0
36.8 0 0
37.2 0 0
37.6 0 0
38 0 0
38.4 0 0
38.8 0 0
39.2 0 0
39.6 0 0
40 0 0
40.4 0 0
0 0.1 0
0.4 0.1 0
0.8 0.1 0
1.2 0.1 0
1.6 0.1 0
2 0.1 0
2.4 0.1 0
2.8 0.1 0
3.2 0.1 0
3.6 0.1 0
4 0.1 0
4.4 0.1 0
4.8 0.1 0
5.2 0.1 0
5.6 0.1 0
6 0.1 0
6.4 0.1 0
6.8 0.1 0
7.2 0.1 0
7.6 0.1 0
8 0.1 0
8.4 0.1 0
8.8 0.1 0
9.2 0.1 0
9.6 0.1 0
10 0.1 0
10.4 0.1 0
10.8 0.1 0
11.2 0.1 0
11.6 0.1 0
12 0.1 0
12.4 0.1 0
12.8 0.1 0
13.2 0.1 0
13.6 0.1 0
14 0.1 0
14.4 0.1 0
14.8 0.1 0
15.2 0.1 0
15.6 0.1 0
16 0.1 0
16.4 0.1 0
16.8 0.1 0
17.2 0.1 0
17.6 0.1 0
18 0.1 0
18.4 0.1 0
18.8 0.1 0
19.2 0.1 0
19.6 0.1 0
20 0.1 0
20.4 0.1 0
20.8 0.1 0
21.2 0.1 0
21.6 0.1 0
22 0.1 0
22.4 0.1 0
22.8 0.1 0
23.2 0.1 0
23.6 0.1 0
24 0.1 0
24.4 0.1 0
24.8 0.1 0
25.2 0.1 0
25.6 0.1 0
26 0.1 0
26.4 0.1 0
26.8 0.1 0
27.2 0.1 0
27.6 0.1 0
28 0.1 0
28.4 0.1 0
28.8 0.1 0
29.2 0.1 0
29.6 0.1 0
30 0.1 0
30.4 0.1 0
30.8 0.1 0
31.2 0.1 0
31.6 0.1 0
32 0.1 0
32.4 0.1 0
32.8 0.1 0
33.2 0.1 0
33.6 0.1 0
34 0.1 0
34.4 0.1 0
34.8 0.1 0
35.2 0.1 0
35.6 0.1 0
36 0.1 0
36.4 0.1 0
36.8 0.1 0
37.2 0.1 0
37.6 0.1 0
38 0.1 0
38.4 0.1 0
38.8 0.1 0
39.2 0.1 0
39.6 0.1 0
40 0.1 0
40.4 0.1 0
0 0.2 0
0.4 0.2 0
0.8 0.2 0
1.2 0.2 0
1.6 0.2 0
2 0.2 0
2.4 0.2 0
2.8 0.2 0
3.2 0.2 0
3.6 0.2 0
4 0.2 0
4.4 0.2 0
4.8 0.2 0
5.2 0.2 0
5.6 0.2 0
6 0.2 0
6.4 0.2 0
6.8 0.2 0
7.2 0.2 0
7.6 0.2 0
8 0.2 0
8.4 0.2 0
8.8 0.2 0
9.2 0.2 0
9.6 0.2 0
10 0.2 0
10.4 0.2 0
10.8 0.2 0
11.2 0.2 0
11.6 0.2 0
12 0.2 0
12.4 0.2 0
12.8 0.2 0
13.2 0.2 0
13.6 0.2 0
14 0.2 0
14.4 0.2 0
14.8 0.2 0
15.2 0.2 0
15.6 0.2 0
16 0.2 0
16.4 0.2 0
16.8 0.2 0
17.2 0.2 0
17.6 0.2 0
18 0.2 0
18.4 0.2 0
18.8 0.2 0
19.2 0.2 0
19.6 0.2 0
20 0.2 0
20.4 0.2 0
20.8 0.2 0
21.2 0.2 0
21.6 0.2 0
22 0.2 0
22.4 0.2 0
22.8 0.2 0
23.2 0.2 0
23.6 0.2 0
24 0.2 0
24.4 0.2 0
24.8 0.2 0
25.2 0.2 0
25.6 0.2 0
26 0.2 0
26.4 0.2 0
26.8 0.2 0
27.2 0.2 0
27.6 0.2 0
28 0.2 0
28.4 0.2 0
28.8 0.2 0
29.2 0.2 0
29.6 0.2 0
30 0.2 0
30.4 0.2 0
30.8 0.2 0
31.2 0.2 0
31.6 0.2 0
32 0.2 0
32.4 0.2 0
32.8 0.2 0
33.2 0.2 0
33.6 0.2 0
34 0.2 0
34.4 0.2 0
34.8 0.2 0
35.2 0.2 0
35.6 0.2 0
36 0.2 0
36.4 0.2 0
36.8 0.2 0
37.2 0.2 0
37.6 0.2 0
38 0.2 0
38.4 0.2 0
38.8 0.2 0
39.2 0.2 0
39.6 0.2 0
40 0.2 0
40.4 0.2 0
0 0.3 0
0.4 0.3 0
0.8 0.3 0
1.2 0.3 0
1.6 0.3 0
2 0.3 0
2.4 0.3 0
2.8 0.3 0
3.2 0.3 0
3.6 0.3 0
4 0.3 0
4.4 0.3 0
4.8 0.3 0
5.2 0.3 0
5.6 0.3 0
6 0.3 0
6.4 0.3 0
6.8 0.3 0
7.2 0.3 0
7.6 0.3 0
8 0.3 0
8.4 0.3 0
8.8 0.3 0
9.2 0.3 0
9.6 0.3 0
10 0.3 0
10.4 0.3 0
10.8 0.3 0
11.2 0.3 0
11.6 0.3 0
12 0.3 0
12.4 0.3 0
12.8 0.3 0
13.2 0.3 0
13.6 0.3 0
14 0.3 0
14.4 0.3 0
14.8 0.3 0
15.2 0.3 0
15.6 0.3 0
16 0.3 0
16.4 0.3 0
16.8 0.3 0
17.2 0.3 0
17.6 0.3 0
18 0.3 0
18.4 0.3 0
18.8 0.3 0
19.2 0.3 0
19.6 0.3 0
20 0.3 0
20.4 0.3 0
20.8 0.3 0
21.2 0.3 0
21.6 0.3 0
22 0.3 0
22.4 0.3 0
22.8 0.3 0
23.2 0.3 0
23.6 0.3 0
24 0.3 0
24.4 0.3 0
24.8 0.3 0
25.2 0.3 0
25.6 0.3 0
26 0.3 0
26.4 0.3 0
26.8 0.3 0
27.2 0.3 0
27.6 0.3 0
28 0.3 0
28.4 0.3 0
28.8 0.3 0
29.2 0.3 0
29.6 0.3 0
30 0.3 0
30.4 0.3 0
30.8 0.3 0
31.2 0.3 0
31.6 0.3 0
32 0.3 0
32.4 0.3 0
32.8 0.3 0
33.2 0.3 0
33.6 0.3 0
34 0.3 0
34.4 0.3 0
34.8 0.3 0
35.2 0.3 0
35.6 0.3 0
36 0.3 0
36.4 0.3 0
36.8 0.3 0
37.2 0.3 0
37.6 0.3 0
38 0.3 0
38.4 0.3 0
38.8 0.3 0
39.2 0.3 0
39.6 0.3 0
40 0.3 0
40.4 0.3 0
0 0.4 0
0.4 0.4 0
0.8 0.4 0
1.2 0.4 0
1.6 0.4 0
2 0.4 0
2.4 0.4 0
2.8 0.4 0
3.2 0.4 0
3.6 0.4 0
4 0.4 0
4.4 0.4 0
4.8 0.4 0
5.2 0.4 0
5.6 0.4 0
6 0.4 0
6.4 0.4 0
6.8 0.4 0
7.2 0.4 0
7.6 0.4 0
8 0.4 0
8.4 0.4 0
8.8 0.4 0
9.2 0.4 0
9.6 0.4 0
10 0.4 0
10.4 0.4 0
10.8 0.4 0
11.2 0.4 0
11.6 0.4 0
12 0.4 0
12.4 0.4 0
12.8 0.4 0
13.2 0.4 0
13.6 0.4 0
14 0.4 0
14.4 0.4 0
14.8 0.4 0
15.2 0.4 0
15.6 0.4 0
16 0.4 0
16.4 0.4 0
16.8 0.4 0
17.2 0.4 0
17.6 0.4 0
18 0.4 0
18.4 0.4 0
18.8 0.4 0
19.2 0.4 0
19.6 0.4 0
20 0.4 0
20.4 0.4 0
20.8 0.4 0
21.2 0.4 0
21.6 0.4 0
22 0.4 0
22.4 0.4 0
22.8 0.4 0
23.2 0.4 0
23.6 0.4 0
24 0.4 0
24.4 0.4 0
24.8 0.4 0
25.2 0.4 0
25.6 0.4 0
26 0.4 0
26.4 0.4 0
26.8 0.4 0
27.2 0.4 0
27.6 0.4 0
28 0.4 0
28.4 0.4 0
28.8 0.4 0
29.2 0.4 0
29.6 0.4 0
30 0.4 0
30.4 0.4 0
30.8 0.4 0
31.2 0.4 0
31.6 0.4 0
32 0.4 0
32.4 0.4 0
32.8 0.4 0
33.2 0.4 0
33.6 0.4 0
34 0.4 0
34.4 0.4 0
34.8 0.4 0
35.2 0.4 0
35.6 0.4 0
36 0.4 0
36.4 0.4 0
36.8 0.4 0
37.2 0.4 0
37.6 0.4 0
38 0.4 0
38.4 0.4 0
38.8 0.4 0
39.2 0.4 0
39.6 0.4 0
40 0.4 0
40.4 0.4 0
0 0.5 0
0.4 0.5 0
0.8 0.5 0
1.2 0.5 0
1.6 0.5 0
2 0.5 0
2.4 0.5 0
2.8 0.5 0
3.2 0.5 0
3.6 0.5 0
4 0.5 0
4.4 0.5 0
4.8 0.5 0
5.2 0.5 0
5.6 0.5 0
6 0.5 0
6.4 0.5 0
6.8 0.5 0
7.2 0.5 0
7.6 0.5 0
8 0.5 0
8.4 0.5 0
8.8 0.5 0
9.2 0.5 0
9.6 0.5 0
10 0.5 0
10.4 0.5 0
10.8 0.5 0
11.2 0.5 0
11.6 0.5 0
12 0.5 0
12.4 0.5 0
12.8 0.5 0
13.2 0.5 0
13.6 0.5 0
14 0.5 0
14.4 0.5 0
14.8 0.5 0
15.2 0.5 0
15.6 0.5 0
16 0.5 0
16.4 0.5 0
16.8 0.5 0
17.2 0.5 0
17.6 0.5 0
18 0.5 0
18.4 0.5 0
18.8 0.5 0
19.2 0.5 0
19.6 0.5 0
20 0.5 0
20.4 0.5 0
20.8 0.5 0
21.2 0.5 0
21.6 0.5 0
22 0.5 0
22.4 0.5 0
22.8 0.5 0
23.2 0.5 0
23.6 0.5 0
24 0.5 0
24.4 0.5 0
24.8 0.5 0
25.2 0.5 0
25.6 0.5 0
26 0.5 0
26.4 0.5 0
26.8 0.5 0
27.2 0.5 0
27.6 0.5 0
28 0.5 0
28.4 0.5 0
28.8 0.5 0
29.2 0.5 0
29.6 0.5 0
30 0.5 0
30.4 0.5 0
30.8 0.5 0
31.2 0.5 0
31.6 0.5 0
32 0.5 0
32.4 0.5 0
32.8 0.5 0
33.2 0.5 0
33.6 0.5 0
34 0.5 0
34.4 0.5 0
34.8 0.5 0
35.2 0.5 0
35.6 0.5 0
36 0.5 0
36.4 0.5 0
36.8 0.5 0
37.2 0.5 0
37.6 0.5 0
38 0.5 0
38.4 0.5 0
38.8 0.5 0
39.2 0.5 0
39.6 0.5 0
40 0.5 0
40.4 0.5 0
0 0.6 0
0.4 0.6 0
0.8 0.6 0
1.2 0.6 0
1.6 0.6 0
2 0.6 0
2.4 0.6 0
2.8 0.6 0
3.2 0.6 0
3.6 0.6 0
4 0.6 0
4.4 0.6 0
4.8 0.6 0
5.2 0.6 0
5.6 0.6 0
6 0.6 0
6.4 0.6 0
6.8 0.6 0
7.2 0.6 0
7.6 0.6 0
8 0.6 0
8.4 0.6 0
8.8 0.6 0
9.2 0.6 0
9.6 0.6 0
10 0.6 0
10.4 0.6 0
10.8 0.6 0
11.2 0.6 0
11.6 0.6 0
12 0.6 0
12.4 0.6 0
12.8 0.6 0
13.2 0.6 0
13.6 0.6 0
14 0.6 0
14.4 0.6 0
14.8 0.6 0
15.2 0.6 0
15.6 0.6 0
16 0.6 0
16.4 0.6 0
16.8 0.6 0
17.2 0.6 0
17.6 0.6 0
18 0.6 0
18.4 0.6 0
18.8 0.6 0
19.2 0.6 0
19.6 0.6 0
20 0.6 0
20.4 0.6 0
20.8 0.6 0
21.2 0.6 0
21.6 0.6 0
22 0.6 0
22.4 0.6 0
22.8 0.6 0
23.2 0.6 0
23.6 0.6 0
24 0.6 0
24.4 0.6 0
24.8 0.6 0
25.2 0.6 0
25.6 0.6 0
26 0.6 0
26.4 0.6 0
26.8 0.6 0
27.2 0.6 0
27.6 0.6 0
28 0.6 0
28.4 0.6 0
28.8 0.6 0
29.2 0.6 0
29.6 0.6 0
30 0.6 0
30.4 0.6 0
30.8 0.6 0
31.2 0.6 0
31.6 0.6 0
32 0.6 0
32.4 0.6 0
32.8 0.6 0
33.2 0.6 0
33.6 0.6 0
34 0.6 0
34.4 0.6 0
34.8 0.6 0
35.2 0.6 0
35.6 0.6 0
36 0.6 0
36.4 0.6 0
36.8 0.6 0
37.2 0.6 0
37.6 0.6 0
38 0.6 0
38.4 0.6 0
38.8 0.6 0
39.2 0.6 0
39.6 0.6 0
40 0.6 0
40.4 0.6 0
0 0.7 0
0.4 0.7 0
0.8 0.7 0
1.2 0.7 0
1.6 0.7 0
2 0.7 0
2.4 0.7 0
2.8 0.7 0
3.2 0.7 0
3.6 0.7 0
4 0.7 0
4.4 0.7 0
4.8 0.7 0
5.2 0.7 0
5.6 0.7 0
6 0.7 0
6.4 0.7 0
6.8 0.7 0
7.2 0.7 0
7.6 0.7 0
8 0.7 0
8.4 0.7 0
8.8 0.7 0
9.2 0.7 0
9.6 0.7 0
10 0.7 0
10.4 0.7 0
10.8 0.7 0
11.2 0.7 0
11.6 0.7 0
12 0.7 0
12.4 0.7 0
12.8 0.7 0
13.2 0.7 0
13.6 0.7 0
14 0.7 0
14.4 0.7 0
14.8 0.7 0
15.2 0.7 0
15.6 0.7 0
16 0.7 0
16.4 0.7 0
16.8 0.7 0
17.2 0.7 0
17.6 0.7 0
18 0.7 0
18.4 0.7 0
18.8 0.7 0
19.2 0.7 0
19.6 0.7 0
20 0.7 0
20.4 0.7 0
20.8 0.7 0
21.2 0.7 0
21.6 0.7 0
22 0.7 0
22.4 0.7 0
22.8 0.7 0
23.2 0.7 0
23.6 0.7 0
24 0.7 0
24.4 0.7 0
24.8 0.7 0
25.2 0.7 0
25.6 0.7 0
26 0.7 0
26.4 0.7 0
26.8 0.7 0
27.2 0.7 0
27.6 0.7 0
28 0.7 0
28.4 0.7 0
28.8 0.7 0
29.2 0.7 0
29.6 0.7 0
30 0.7 0
30.4 0.7 0
30.8 0.7 0
31.2 0.7 0
31.6 0.7 0
32 0.7 0
32.4 0.7 0
32.8 0.7 0
33.2 0.7 0
33.6 0.7 0
34 0.7 0
34.4 0.7 0
34.8 0.7 0
35.2 0.7 0
35.6 0.7 0
36 0.7 0
36.4 0.7 0
36.8 0.7 0
37.2 0.7 0
37.6 0.7 0
38 0.7 0
38.4 0.7 0
38.8 0.7 0
39.2 0.7 0
39.6 0.7 0
40 0.7 0
40.4 0.7 0
0 0.8 0
0.4 0.8 0
0.8 0.8 0
1.2 0.8 0
1.6 0.8 0
2 0.8 0
2.4 0.8 0
2.8 0.8 0
3.2 0.8 0
3.6 0.8 0
4 0.8 0
4.4 0.8 0
4.8 0.8 0
5.2 0.8 0
5.6 0.8 0
6 0.8 0
6.4 0.8 0
6.8 0.8 0
7.2 0.8 0
7.6 0.8 0
8 0.8 0
8.4 0.8 0
8.8 0.8 0
9.2 0.8 0
9.6 0.8 0
10 0.8 0
10.4 0.8 0
10.8 0.8 0
11.2 0.8 0
11.6 0.8 0
12 0.8 0
12.4 0.8 0
12.8 0.8 0
13.2 0.8 0
13.6 0.8 0
14 0.8 0
14.4 0.8 0
14.8 0.8 0
15.2 0.8 0
15.6 0.8 0
16 0.8 0
16.4 0.8 0
16.8 0.8 0
17.2 0.8 0
17.6 0.8 0
18 0.8 0
18.4 0.8 0
18.8 0.8 0
19.2 0.8 0
19.6 0.8 0
20 0.8 0
20.4 0.8 0
20.8 0.8 0
21.2 0.8 0
21.6 0.8 0
22 0.8 0
22.4 0.8 0
22.8 0.8 0
23.2 0.8 0
23.6 0.8 0
24 0.8 0
24.4 0.8 0
24.8 0.8 0
25.2 0.8 0
25.6 0.8 0
26 0.8 0
26.4 0.8 0
26.8 0.8 0
27.2 0.8 0
27.6 0.8 0
28 0.8 0
28.4 0.8 0
28.8 0.8 0
29.2 0.8 0
29.6 0.8 0
30 0.8 0
30.4 0.8 0
30.8 0.8 0
31.2 0.8 0
31.6 0.8 0
32 0.8 0
32.4 0.8 0
32.8 0.8 0
33.2 0.8 0
33.6 0.8 0
34 0.8 0
34.4 0.8 0
34.8 0.8 0
35.2 0.8 0
35.6 0.8 0
36 0.8 0
36.4 0.8 0
36.8 0.8 0
37.2 0.8 0
37.6 0.8 0
38 0.8 0
38.4 0.8 0
38.8 0.8 0
39.2 0.8 0
39.6 0.8 0
40 0.8 0
40.4 0.8 0
0 0.9 0
0.4 0.9 0
0.8 0.9 0
1.2 0.9 0
1.6 0.9 0
2 0.9 0
2.4 0.9 0
2.8 0.9 0
3.2 0.9 0
3.6 0.9 0
4 0.9 0
4.4 0.9 0
4.8 0.9 0
5.2 0.9 0
5.6 0.9 0
6 0.9 0
6.4 0.9 0
6.8 0.9 0
7.2 0.9 0
7.6 0.9 0
8 0.9 0
8.4 0.9 0
8.8 0.9 0
9.2 0.9 0
9.6 0.9 0
10 0.9 0
10.4 0.9 0
10.8 0.9 0
11.2 0.9 0
11.6 0.9 0
12 0.9 0
12.4 0.9 0
12.8 0.9 0
13.2 0.9 0
13.6 0.9 0
14 0.9 0
14.4 0.9 0
14.8 0.9 0
15.2 0.9 0
15.6 0.9 0
16 0.9 0
16.4 0.9 0
16.8 0.9 0
17.2 0.9 0
17.6 0.9 0
18 0.9 0
18.4 0.9 0
18.8 0.9 0
19.2 0.9 0
19.6 0.9 0
20 0.9 0
20.4 0.9 0
20.8 0.9 0
21.2 0.9 0
21.6 0.9 0
22 0.9 0
22.4 0.9 0
22.8 0.9 0
23.2 0.9 0
23.6 0.9 0
24 0.9 0
24.4 0.9 0
24.8 0.9 0
25.2 0.9 0
25.6 0.9 0
26 0.9 0
26.4 0.9 0
26.8 0.9 0
27.2 0.9 0
27.6 0.9 0
28 0.9 0
28.4 0.9 0
28.8 0.9 0
29.2 0.9 0
29.6 0.9 0
30 0.9 0
30.4 0.9 0
30.8 0.9 0
31.2 0.9 0
31.6 0.9 0
32 0.9 0
32.4 0.9 0
32.8 0.9 0
33.2 0.9 0
33.6 0.9 0
34 0.9 0
34.4 0.9 0
34.8 0.9 0
35.2 0.9 0
35.6 0.9 0
36 0.9 0
36.4 0.9 0
36.8 0.9 0
37.2 0.9 0
37.6 0.9 0
38 0.9 0
38.4 0.9 0
38.8 0.9 0
39.2 0.9 0
39.6 0.9 0
40 0.9 0
40.4 0.9 0
0 1 0
0.4 1 0
0.8 1 0
1.2 1 0
1.6 1 0
2 1 0
2.4 1 0
2.8 1 0
3.2 1 0
3.6 1 0
4 1 0
4.4 1 0
4.8 1 0
5.2 1 0
5.6 1 0
6 1 0
6.4 1 0
6.8 1 0
7.2 1 0
7.6 1 0
8 1 0
8.4 1 0
8.8 1 0
9.2 1 0
9.6 1 0
10 1 0
10.4 1 0
10.8 1 0
11.2 1 0
11.6 1 0
12 1 0
12.4 1 0
12.8 1 0
13.2 1 0
13.6 1 0
14 1 0
14.4 1 0
14.8 1 0
15.2 1 0
15.6 1 0
16 1 0
16.4 1 0
16.8 1 0
17.2 1 0
17.6 1 0
18 1 0
18.4 1 0
18.8 1 0
19.2 1 0
19.6 1 0
20 1 0
20.4 1 0
20.8 1 0
21.2 1 0
21.6 1 0
22 1 0
22.4 1 0
22.8 1 0
23.2 1 0
23.6 1 0
24 1 0
24.4 1 0
24.8 1 0
25.2 1 0
25.6 1 0
26 1 0
26.4 1 0
26.8 1 0
27.2 1 0
27.6 1 0
28 1 0
28.4 1 0
28.8 1 0
29.2 1 0
29.6 1 0
30 1 0
30.4 1 0
30.8 1 0
31.2 1 0
31.6 1 0
32 1 0
32.4 1 0
32.8 1 0
33.2 1 0
33.6 1 0
34 1 0
34.4 1 0
34.8 1 0
35.2 1 0
35.6 1 0
36 1 0
36.4 1 0
36.8 1 0
37.2 1 0
37.6 1 0
38 1 0
38.4 1 0
38.8 1 0
39.2 1 0
39.6 1 0
40 1 0
40.4 1 0
0 1.1 0
0.4 1.1 0
0.8 1.1 0
1.2 1.1 0
1.6 1.1 0
2 1.1 0
2.4 1.1 0
2.8 1.1 0
3.2 1.1 0
3.6 1.1 0
4 1.1 0
4.4 1.1 0
4.8 1.1 0
5.2 1.1 0
5.6 1.1 0
6 1.1 0
6.4 1.1 0
6.8 1.1 0
7.2 1.1 0
7.6 1.1 0
8 1.1 0
8.4 1.1 0
8.8 1.1 0
9.2 1.1 0
9.6 1.1 0
10 1.1 0
10.4 1.1 0
10.8 1.1 0
11.2 1.1 0
11.6 1.1 0
12 1.1 0
12.4 1.1 0
12.8 1.1 0
13.2 1.1 0
13.6 1.1 0
14 1.1 0
14.4 1.1 0
14.8 1.1 0
15.2 1.1 0
15.6 1.1 0
16 1.1 0
16.4 1.1 0
16.8 1.1 0
17.2 1.1 0
17.6 1.1 0
18 1.1 0
18.4 1.1 0
18.8 1.1 0
19.2 1.1 0
19.6 1.1 0
20 1.1 0
20.4 1.1 0
20.8 1.1 0
21.2 1.1 0
21.6 1.1 0
22 1.1 0
22.4 1.1 0
22.8 1.1 0
23.2 1.1 0
23.6 1.1 0
24 1.1 0
24.4 1.1 0
24.8 1.1 0
25.2 1.1 0
25.6 1.1 0
26 1.1 0
26.4 1.1 0
26.8 1.1 0
27.2 1.1 0
27.6 1.1 0
28 1.1 0
28.4 1.1 0
28.8 1.1 0
29.2 1.1 0
29.6 1.1 0
30 1.1 0
30.4 1.1 0
30.8 1.1 0
31.2 1.1 0
31.6 1.1 0
32 1.1 0
32.4 1.1 0
32.8 1.1 0
33.2 1.1 0
33.6 1.1 0
34 1.1 0
34.4 1.1 0
34.8 1.1 0
35.2 1.1 0
35.6 1.1 0
36 1.1 0
36.4 1.1 0
36.8 1.1 0
37.2 1.1 0
37.6 1.1 0
38 1.1 0
38.4 1.1 0
38.8 1.1 0
39.2 1.1 0
39.6 1.1 0
40 1.1 0
40.4 1.1 0

POINT_DATA 1224

SCALARS p double
LOOKUP_TABLE default
3.04263
3.04263
2.90764
2.80279
2.71945
2.65324
2.59785
2.54885
2.50383
2.46152
2.4212
2.38243
2.3449
2.30838
2.27268
2.23768
2.20324
2.16929
2.13573
2.10252
2.06959
2.0369
2.00442
1.9721
1.93993
1.90789
1.87594
1.84409
1.81231
1.78059
1.74892
1.7173
1.68572
1.65417
1.62265
1.59115
1.55967
1.5282
1.49676
1.46532
1.43389
1.40247
1.37106
1.33965
1.30825
1.27686
1.24546
1.21407
1.18269
1.1513
1.11992
1.08854
1.05716
1.02578
0.9944
0.963023
0.931647
0.900271
0.868896
0.837521
0.806147
0.774773
0.743399
0.712025
0.680652
0.649279
0.617905
0.586532
0.555159
0.523786
0.492413
0.46104
0.429667
0.398295
0.366922
0.335549
0.304176
0.272803
0.24143
0.210057
0.178685
0.147312
0.115939
0.0845661
0.0531933
0.0218205
-0.00955237
-0.0409252
-0.072298
-0.103671
-0.135044
-0.166416
-0.197789
-0.229162
-0.260535
-0.291908
-0.323281
-0.354653
-0.386026
-0.417399
-0.448772
0.448772
3.04263
3.04263
2.90764
2.80279
2.71945
2.65324
2.59785
2.54885
2.50383
2.46152
2.4212
2.38243
2.3449
2.30838
2.27268
2.23768
2.20324
2.16929
2.13573
2.10252
2.06959
2.0369
2.00442
1.9721
1.93993
1.90789
1.87594
1.84409
1.81231
1.78059
1.74892
1.7173
1.68572
1.65417
1.62265
1.59115
1.55967
1.5282
1.49676
1.46532
1.43389
1.40247
1.37106
1.33965
1.30825
1.27686
1.24546
1.21407
1.18269
1.1513
1.11992
1.08854
1.05716
1.02578
0.9944
0.963023
0.931647
0.900271
0.868896
0.837521
0.806147
0.774773
0.743399
0.712025
0.680652
0.649279
0.617905
0.586532
0.555159
0.523786
0.492413
0.46104
0.429667
0.398295
0.366922
0.335549
0.304176
0.272803
0.24143
0.210057
0.178685
0.147312
0.115939
0.0845661
0.0531933
0.0218205
-0.00955237
-0.0409252
-0.072298
-0.103671
-0.135044
-0.166416
-0.197789
-0.229162
-0.260535
-0.291908
-0.323281
-0.354653
-0.386026
-0.417399
-0.448772
0.448772
3.01967
3.01967
2.9083
2.80493
2.72111
2.65427
2.59845
2.54921
2.50407
2.46169
2.42133
2.38253
2.34498
2.30844
2.27273
2.23772
2.20328
2.16932
2.13576
2.10254
2.06961
2.03692
2.00443
1.97211
1.93994
1.90789
1.87595
1.84409
1.81231
1.78059
1.74893
1.71731
1.68572
1.65417
1.62265
1.59115
1.55967
1.52821
1.49676
1.46532
1.43389
1.40247
1.37106
1.33965
1.30825
1.27686
1.24546
1.21407
1.18269
1.1513
1.11992
1.08854
1.05716
1.02578
0.9944
0.963023
0.931647
0.900271
0.868896
0.837521
0.806147
0.774773
0.743399
0.712025
0.680652
0.649279
0.617905
0.586532
0.555159
0.523786
0.492413
0.46104
0.429667
0.398295
0.366922
0.335549
0.304176
0.272803
0.24143
0.210057
0.178685
0.147312
0.115939
0.0845661
0.0531933
0.0218205
-0.00955237
-0.0409252
-0.072298
-0.103671
-0.135044
-0.166416
-0.197789
-0.229162
-0.260535
-0.291908
-0.323281
-0.354653
-0.386026
-0.417399
-0.448772
0.448772
3.00787
3.00787
2.9092
2.80825
2.72378
2.65587
2.59932
2.54969
2.50435
2.46187
2.42146
2.38262
2.34505
2.3085
2.27278
2.23775
2.20331
2.16934
2.13578
2.10256
2.06962
2.03693
2.00444
1.97212
1.93995
1.9079
1.87595
1.8441
1.81231
1.78059
1.74893
1.71731
1.68572
1.65417
1.62265
1.59115
1.55967
1.52821
1.49676
1.46532
1.43389
1.40247
1.37106
1.33965
1.30825
1.27686
1.24546
1.21407
1.18269
1.1513
1.11992
1.08854
1.05716
1.02578
0.9944
0.963023
0.931647
0.900271
0.868896
0.837521
0.806147
0.774773
0.743399
0.712025
0.680652
0.649279
0.617905
0.586532
0.555159
0.523786
0.492413
0.46104
0.429667
0.398295
0.366922
0.335549
0.304176
0.272803
0.24143
0.210057
0.178685
0.147312
0.115939
0.0845661
0.0531933
0.0218205
-0.00955237
-0.0409252
-0.072298
-0.103671
-0.135044
-0.166416
-0.197789
-0.229162
-0.260535
-0.291908
-0.323281
-0.354653
-0.386026
-0.417399
-0.448772
0.448772
3.00102
3.00102
2.91
2.81109
2.72622
2.65744
2.60023
2.55022
2.50468
2.46208
2.42161
2.38274
2.34514
2.30856
2.27283
2.2378
2.20334
2.16937
2.1358
2.10257
2.06964
2.03694
2.00445
1.97213
1.93996
1.9079
1.87596
1.8441
1.81232
1.7806
1.74893
1.71731
1.68573
1.65418
1.62265
1.59115
1.55967
1.52821
1.49676
1.46532
1.43389
1.40247
1.37106
1.33965
1.30825
1.27686
1.24546
1.21407
1.18269
1.1513
1.11992
1.08854
1.05716
1.02578
0.9944
0.963023
0.931647
0.900271
0.868896
0.837521
0.806147
0.774773
0.743399
0.712025
0.680652
0.649279
0.617905
0.586532
0.555159
0.523786
0.492413
0.46104
0.429667
0.398295
0.366922
0.335549
0.304176
0.272803
0.24143
0.210057
0.178685
0.147312
0.115939
0.0845661
0.0531933
0.0218205
-0.00955237
-0.0409252
-0.072298
-0.103671
-0.135044
-0.166416
-0.197789
-0.229162
-0.260535
-0.291908
-0.323281
-0.354653
-0.386026
-0.417399
-0.448772
0.448772
2.99772
2.99772
2.91046
2.81266
2.72761
2.65837
2.60079
2.55056
2.50489
2.46224
2.42172
2.38282
2.3452
2.30861
2.27287
2.23783
2.20337
2.16939
2.13582
2.10259
2.06965
2.03695
2.00446
1.97214
1.93996
1.90791
1.87596
1.8441
1.81232
1.7806
1.74893
1.71731
1.68573
1.65418
1.62265
1.59115
1.55967
1.52821
1.49676
1.46532
1.43389
1.40247
1.37106
1.33965
1.30825
1.27686
1.24546
1.21407
1.18269
1.1513
1.11992
1.08854
1.05716
1.02578
0.9944
0.963023
0.931647
0.900271
0.868896
0.837521
0.806147
0.774773
0.743399
0.712025
0.680652
0.649279
0.617905
0.586532
0.555159
0.523786
0.492413
0.46104
0.429667
0.398295
0.366922
0.335549
0.304176
0.272803
0.24143
0.210057
0.178685
0.147312
0.115939
0.0845661
0.0531933
0.0218205
-0.00955237
-0.0409252
-0.072298
-0.103671
-0.135044
-0.166416
-0.197789
-0.229162
-0.260535
-0.291908
-0.323281
-0.354653
-0.386026
-0.417399
-0.448772
0.448772
2.99772
2.99772
2.91046
2.81266
2.72762
2.65837
2.60079
2.55056
2.50489
2.46223
2.42172
2.38282
2.3452
2.30861
2.27287
2.23783
2.20337
2.16939
2.13582
2.10259
2.06965
2.03695
2.00446
1.97214
1.93996
1.90791
1.87596
1.8441
1.81232
1.7806
1.74893
1.71731
1.68573
1.65418
1.62265
1.59115
1.55967
1.52821
1.49676
1.46532
1.43389
1.40247
1.37106
1.33965
1.30825
1.27686
1.24546
1.21407
1.18269
1.1513
1.11992
1.08854
1.05716
1.02578
0.9944
0.963023
0.931647
0.900271
0.868896
0.837521
0.806147
0.774773
0.743399
0.712025
0.680652
0.649279
0.617905
0.586532
0.555159
0.523786
0.492413
0.46104
0.429667
0.398295
0.366922
0.335549
0.304176
0.272803
0.24143
0.210057
0.178685
0.147312
0.115939
0.0845661
0.0531933
0.0218205
-0.00955237
-0.0409252
-0.072298
-0.103671
-0.135044
-0.166416
-0.197789
-0.229162
-0.260535
-0.291908
-0.323281
-0.354653
-0.386026
-0.417399
-0.448772
0.448772
3.00102
3.00102
2.91
2.81109
2.72622
2.65744
2.60023
2.55022
2.50468
2.46208
2.42161
2.38274
2.34514
2.30856
2.27283
2.2378
2.20334
2.16937
2.1358
2.10257
2.06964
2.03694
2.00445
1.97213
1.93996
1.9079
1.87596
1.8441
1.81232
1.7806
1.74893
1.71731
1.68573
1.65418
1.62265
1.59115
1.55967
1.52821
1.49676
1.46532
1.43389
1.40247
1.37106
1.33965
1.30825
1.27686
1.24546
1.21407
1.18269
1.1513
1.11992
1.08854
1.05716
1.02578
0.9944
0.963023
0.931647
0.900271
0.868896
0.837521
0.806147
0.774773
0.743399
0.712025
0.680652
0.649279
0.617905
0.586532
0.555159
0.523786
0.492413
0.46104
0.429667
0.398295
0.366922
0.335549
0.304176
0.272803
0.24143
0.210057
0.178685
0.147312
0.115939
0.0845661
0.0531933
0.0218205
-0.00955237
-0.0409252
-0.072298
-0.103671
-0.135044
-0.166416
-0.197789
-0.229162
-0.260535
-0.291908
-0.323281
-0.354653
-0.386026
-0.417399
-0.448772
0.448772
3.00787
3.00787
2.9092
2.80825
2.72378
2.65588
2.59932
2.54969
2.50435
2.46187
2.42146
2.38262
2.34505
2.3085
2.27278
2.23775
2.20331
2.16934
2.13578
2.10256
2.06962
2.03693
2.00444
1.97212
1.93995
1.9079
1.87595
1.8441
1.81231
1.78059
1.74893
1.71731
1.68572
1.65417
1.62265
1.59115
1.55967
1.52821
1.49676
1.46532
1.43389
1.40247
1.37106
1.33965
1.30825
1.27686
1.24546
1.21407
1.18269
1.1513
1.11992
1.08854
1.05716
1.02578
0.9944
0.963023
0.931647
0.900271
0.868896
0.837521
0.806147
0.774773
0.743399
0.712025
0.680652
0.649279
0.617905
0.586532
0.555159
0.523786
0.492413
0.46104
0.429667
0.398295
0.366922
0.335549
0.304176
0.272803
0.24143
0.210057
0.178685
0.147312
0.115939
0.0845661
0.0531933
0.0218205
-0.00955237
-0.0409252
-0.072298
-0.103671
-0.135044
-0.166416
-0.197789
-0.229162
-0.260535
-0.291908
-0.323281
-0.354653
-0.386026
-0.417399
-0.448772
0.448772
3.01967
3.01967
2.9083
2.80493
2.72111
2.65427
2.59845
2.54921
2.50407
2.46169
2.42133
2.38253
2.34498
2.30844
2.27273
2.23772
2.20328
2.16932
2.13576
2.10254
2.06961
2.03692
2.00443
1.97211
1.93994
1.90789
1.87595
1.84409
1.81231
1.78059
1.74893
1.71731
1.68572
1.65417
1.62265
1.59115
1.55967
1.52821
1.49676
1.46532
1.43389
1.40247
1.37106
1.33965
1.30825
1.27686
1.24546
1.21407
1.18269
1.1513
1.11992
1.08854
1.05716
1.02578
0.9944
0.963023
0.931647
0.900271
0.868896
0.837521
0.806147
0.774773
0.743399
0.712025
0.680652
0.649279
0.617905
0.586532
0.555159
0.523786
0.492413
0.46104
0.429667
0.398295
0.366922
0.335549
0.304176
0.272803
0.24143
0.210057
0.178685
0.147312
0.115939
0.0845661
0.0531933
0.0218205
-0.00955237
-0.0409252
-0.072298
-0.103671
-0.135044
-0.166416
-0.197789
-0.229162
-0.260535
-0.291908
-0.323281
-0.354653
-0.386026
-0.417399
-0.448772
0.448772
3.04263
3.04263
2.90764
2.8028
2.71945
2.65324
2.59785
2.54885
2.50383
2.46152
2.4212
2.38243
2.3449
2.30838
2.27268
2.23768
2.20324
2.16929
2.13573
2.10252
2.06959
2.0369
2.00442
1.9721
1.93993
1.90789
1.87594
1.84409
1.81231
1.78059
1.74892
1.7173
1.68572
1.65417
1.62265
1.59115
1.55967
1.5282
1.49676
1.46532
1.43389
1.40247
1.37106
1.33965
1.30825
1.27686
1.24546
1.21407
1.18269
1.1513
1.11992
1.08854
1.05716
1.02578
0.9944
0.963023
0.931647
0.900271
0.868896
0.837521
0.806147
0.774773
0.743399
0.712025
0.680652
0.649279
0.617905
0.586532
0.555159
0.523786
0.492413
0.46104
0.429667
0.398295
0.366922
0.335549
0.304176
0.272803
0.24143
0.210057
0.178685
0.147312
0.115939
0.0845661
0.0531933
0.0218205
-0.00955237
-0.0409252
-0.072298
-0.103671
-0.135044
-0.166416
-0.197789
-0.229162
-0.260535
-0.291908
-0.323281
-0.354653
-0.386026
-0.417399
-0.448772
0.448772
3.04263
3.04263
2.90764
2.8028
2.71945
2.65324
2.59785
2.54885
2.50383
2.46152
2.4212
2.38243
2.3449
2.30838
2.27268
2.23768
2.20324
2.16929
2.13573
2.10252
2.06959
2.0369
2.00442
1.9721
1.93993
1.90789
1.87594
1.84409
1.81231
1.78059
1.74892
1.7173
1.68572
1.65417
1.62265
1.59115
1.55967
1.5282
1.49676
1.46532
1.43389
1.40247
1.37106
1.33965
1.30825
1.27686
1.24546
1.21407
1.18269
1.1513
1.11992
1.08854
1.05716
1.02578
0.9944
0.963023
0.931647
0.900271
0.868896
0.837521
0.806147
0.774773
0.743399
0.712025
0.680652
0.649279
0.617905
0.586532
0.555159
0.523786
0.492413
0.46104
0.429667
0.398295
0.366922
0.335549
0.304176
0.272803
0.24143
0.210057
0.178685
0.147312
0.115939
0.0845661
0.0531933
0.0218205
-0.00955237
-0.0409252
-0.072298
-0.103671
-0.135044
-0.166416
-0.197789
-0.229162
-0.260535
-0.291908
-0.323281
-0.354653
-0.386026
-0.417399
-0.448772
0.448772
