# vtk DataFile Version 2.0
FlowField
ASCII
DATASET STRUCTURED_GRID
DIMENSIONS 101 11 1 
POINTS 1111 double
0 0 0
0.3 0 0
0.6 0 0
0.9 0 0
1.2 0 0
1.5 0 0
1.8 0 0
2.1 0 0
2.4 0 0
2.7 0 0
3 0 0
3.3 0 0
3.6 0 0
3.9 0 0
4.2 0 0
4.5 0 0
4.8 0 0
5.1 0 0
5.4 0 0
5.7 0 0
6 0 0
6.3 0 0
6.6 0 0
6.9 0 0
7.2 0 0
7.5 0 0
7.8 0 0
8.1 0 0
8.4 0 0
8.7 0 0
9 0 0
9.3 0 0
9.6 0 0
9.9 0 0
10.2 0 0
10.5 0 0
10.8 0 0
11.1 0 0
11.4 0 0
11.7 0 0
12 0 0
12.3 0 0
12.6 0 0
12.9 0 0
13.2 0 0
13.5 0 0
13.8 0 0
14.1 0 0
14.4 0 0
14.7 0 0
15 0 0
15.3 0 0
15.6 0 0
15.9 0 0
16.2 0 0
16.5 0 0
16.8 0 0
17.1 0 0
17.4 0 0
17.7 0 0
18 0 0
18.3 0 0
18.6 0 0
18.9 0 0
19.2 0 0
19.5 0 0
19.8 0 0
20.1 0 0
20.4 0 0
20.7 0 0
21 0 0
21.3 0 0
21.6 0 0
21.9 0 0
22.2 0 0
22.5 0 0
22.8 0 0
23.1 0 0
23.4 0 0
23.7 0 0
24 0 0
24.3 0 0
24.6 0 0
24.9 0 0
25.2 0 0
25.5 0 0
25.8 0 0
26.1 0 0
26.4 0 0
26.7 0 0
27 0 0
27.3 0 0
27.6 0 0
27.9 0 0
28.2 0 0
28.5 0 0
28.8 0 0
29.1 0 0
29.4 0 0
29.7 0 0
30 0 0
0 0.1 0
0.3 0.1 0
0.6 0.1 0
0.9 0.1 0
1.2 0.1 0
1.5 0.1 0
1.8 0.1 0
2.1 0.1 0
2.4 0.1 0
2.7 0.1 0
3 0.1 0
3.3 0.1 0
3.6 0.1 0
3.9 0.1 0
4.2 0.1 0
4.5 0.1 0
4.8 0.1 0
5.1 0.1 0
5.4 0.1 0
5.7 0.1 0
6 0.1 0
6.3 0.1 0
6.6 0.1 0
6.9 0.1 0
7.2 0.1 0
7.5 0.1 0
7.8 0.1 0
8.1 0.1 0
8.4 0.1 0
8.7 0.1 0
9 0.1 0
9.3 0.1 0
9.6 0.1 0
9.9 0.1 0
10.2 0.1 0
10.5 0.1 0
10.8 0.1 0
11.1 0.1 0
11.4 0.1 0
11.7 0.1 0
12 0.1 0
12.3 0.1 0
12.6 0.1 0
12.9 0.1 0
13.2 0.1 0
13.5 0.1 0
13.8 0.1 0
14.1 0.1 0
14.4 0.1 0
14.7 0.1 0
15 0.1 0
15.3 0.1 0
15.6 0.1 0
15.9 0.1 0
16.2 0.1 0
16.5 0.1 0
16.8 0.1 0
17.1 0.1 0
17.4 0.1 0
17.7 0.1 0
18 0.1 0
18.3 0.1 0
18.6 0.1 0
18.9 0.1 0
19.2 0.1 0
19.5 0.1 0
19.8 0.1 0
20.1 0.1 0
20.4 0.1 0
20.7 0.1 0
21 0.1 0
21.3 0.1 0
21.6 0.1 0
21.9 0.1 0
22.2 0.1 0
22.5 0.1 0
22.8 0.1 0
23.1 0.1 0
23.4 0.1 0
23.7 0.1 0
24 0.1 0
24.3 0.1 0
24.6 0.1 0
24.9 0.1 0
25.2 0.1 0
25.5 0.1 0
25.8 0.1 0
26.1 0.1 0
26.4 0.1 0
26.7 0.1 0
27 0.1 0
27.3 0.1 0
27.6 0.1 0
27.9 0.1 0
28.2 0.1 0
28.5 0.1 0
28.8 0.1 0
29.1 0.1 0
29.4 0.1 0
29.7 0.1 0
30 0.1 0
0 0.2 0
0.3 0.2 0
0.6 0.2 0
0.9 0.2 0
1.2 0.2 0
1.5 0.2 0
1.8 0.2 0
2.1 0.2 0
2.4 0.2 0
2.7 0.2 0
3 0.2 0
3.3 0.2 0
3.6 0.2 0
3.9 0.2 0
4.2 0.2 0
4.5 0.2 0
4.8 0.2 0
5.1 0.2 0
5.4 0.2 0
5.7 0.2 0
6 0.2 0
6.3 0.2 0
6.6 0.2 0
6.9 0.2 0
7.2 0.2 0
7.5 0.2 0
7.8 0.2 0
8.1 0.2 0
8.4 0.2 0
8.7 0.2 0
9 0.2 0
9.3 0.2 0
9.6 0.2 0
9.9 0.2 0
10.2 0.2 0
10.5 0.2 0
10.8 0.2 0
11.1 0.2 0
11.4 0.2 0
11.7 0.2 0
12 0.2 0
12.3 0.2 0
12.6 0.2 0
12.9 0.2 0
13.2 0.2 0
13.5 0.2 0
13.8 0.2 0
14.1 0.2 0
14.4 0.2 0
14.7 0.2 0
15 0.2 0
15.3 0.2 0
15.6 0.2 0
15.9 0.2 0
16.2 0.2 0
16.5 0.2 0
16.8 0.2 0
17.1 0.2 0
17.4 0.2 0
17.7 0.2 0
18 0.2 0
18.3 0.2 0
18.6 0.2 0
18.9 0.2 0
19.2 0.2 0
19.5 0.2 0
19.8 0.2 0
20.1 0.2 0
20.4 0.2 0
20.7 0.2 0
21 0.2 0
21.3 0.2 0
21.6 0.2 0
21.9 0.2 0
22.2 0.2 0
22.5 0.2 0
22.8 0.2 0
23.1 0.2 0
23.4 0.2 0
23.7 0.2 0
24 0.2 0
24.3 0.2 0
24.6 0.2 0
24.9 0.2 0
25.2 0.2 0
25.5 0.2 0
25.8 0.2 0
26.1 0.2 0
26.4 0.2 0
26.7 0.2 0
27 0.2 0
27.3 0.2 0
27.6 0.2 0
27.9 0.2 0
28.2 0.2 0
28.5 0.2 0
28.8 0.2 0
29.1 0.2 0
29.4 0.2 0
29.7 0.2 0
30 0.2 0
0 0.3 0
0.3 0.3 0
0.6 0.3 0
0.9 0.3 0
1.2 0.3 0
1.5 0.3 0
1.8 0.3 0
2.1 0.3 0
2.4 0.3 0
2.7 0.3 0
3 0.3 0
3.3 0.3 0
3.6 0.3 0
3.9 0.3 0
4.2 0.3 0
4.5 0.3 0
4.8 0.3 0
5.1 0.3 0
5.4 0.3 0
5.7 0.3 0
6 0.3 0
6.3 0.3 0
6.6 0.3 0
6.9 0.3 0
7.2 0.3 0
7.5 0.3 0
7.8 0.3 0
8.1 0.3 0
8.4 0.3 0
8.7 0.3 0
9 0.3 0
9.3 0.3 0
9.6 0.3 0
9.9 0.3 0
10.2 0.3 0
10.5 0.3 0
10.8 0.3 0
11.1 0.3 0
11.4 0.3 0
11.7 0.3 0
12 0.3 0
12.3 0.3 0
12.6 0.3 0
12.9 0.3 0
13.2 0.3 0
13.5 0.3 0
13.8 0.3 0
14.1 0.3 0
14.4 0.3 0
14.7 0.3 0
15 0.3 0
15.3 0.3 0
15.6 0.3 0
15.9 0.3 0
16.2 0.3 0
16.5 0.3 0
16.8 0.3 0
17.1 0.3 0
17.4 0.3 0
17.7 0.3 0
18 0.3 0
18.3 0.3 0
18.6 0.3 0
18.9 0.3 0
19.2 0.3 0
19.5 0.3 0
19.8 0.3 0
20.1 0.3 0
20.4 0.3 0
20.7 0.3 0
21 0.3 0
21.3 0.3 0
21.6 0.3 0
21.9 0.3 0
22.2 0.3 0
22.5 0.3 0
22.8 0.3 0
23.1 0.3 0
23.4 0.3 0
23.7 0.3 0
24 0.3 0
24.3 0.3 0
24.6 0.3 0
24.9 0.3 0
25.2 0.3 0
25.5 0.3 0
25.8 0.3 0
26.1 0.3 0
26.4 0.3 0
26.7 0.3 0
27 0.3 0
27.3 0.3 0
27.6 0.3 0
27.9 0.3 0
28.2 0.3 0
28.5 0.3 0
28.8 0.3 0
29.1 0.3 0
29.4 0.3 0
29.7 0.3 0
30 0.3 0
0 0.4 0
0.3 0.4 0
0.6 0.4 0
0.9 0.4 0
1.2 0.4 0
1.5 0.4 0
1.8 0.4 0
2.1 0.4 0
2.4 0.4 0
2.7 0.4 0
3 0.4 0
3.3 0.4 0
3.6 0.4 0
3.9 0.4 0
4.2 0.4 0
4.5 0.4 0
4.8 0.4 0
5.1 0.4 0
5.4 0.4 0
5.7 0.4 0
6 0.4 0
6.3 0.4 0
6.6 0.4 0
6.9 0.4 0
7.2 0.4 0
7.5 0.4 0
7.8 0.4 0
8.1 0.4 0
8.4 0.4 0
8.7 0.4 0
9 0.4 0
9.3 0.4 0
9.6 0.4 0
9.9 0.4 0
10.2 0.4 0
10.5 0.4 0
10.8 0.4 0
11.1 0.4 0
11.4 0.4 0
11.7 0.4 0
12 0.4 0
12.3 0.4 0
12.6 0.4 0
12.9 0.4 0
13.2 0.4 0
13.5 0.4 0
13.8 0.4 0
14.1 0.4 0
14.4 0.4 0
14.7 0.4 0
15 0.4 0
15.3 0.4 0
15.6 0.4 0
15.9 0.4 0
16.2 0.4 0
16.5 0.4 0
16.8 0.4 0
17.1 0.4 0
17.4 0.4 0
17.7 0.4 0
18 0.4 0
18.3 0.4 0
18.6 0.4 0
18.9 0.4 0
19.2 0.4 0
19.5 0.4 0
19.8 0.4 0
20.1 0.4 0
20.4 0.4 0
20.7 0.4 0
21 0.4 0
21.3 0.4 0
21.6 0.4 0
21.9 0.4 0
22.2 0.4 0
22.5 0.4 0
22.8 0.4 0
23.1 0.4 0
23.4 0.4 0
23.7 0.4 0
24 0.4 0
24.3 0.4 0
24.6 0.4 0
24.9 0.4 0
25.2 0.4 0
25.5 0.4 0
25.8 0.4 0
26.1 0.4 0
26.4 0.4 0
26.7 0.4 0
27 0.4 0
27.3 0.4 0
27.6 0.4 0
27.9 0.4 0
28.2 0.4 0
28.5 0.4 0
28.8 0.4 0
29.1 0.4 0
29.4 0.4 0
29.7 0.4 0
30 0.4 0
0 0.5 0
0.3 0.5 0
0.6 0.5 0
0.9 0.5 0
1.2 0.5 0
1.5 0.5 0
1.8 0.5 0
2.1 0.5 0
2.4 0.5 0
2.7 0.5 0
3 0.5 0
3.3 0.5 0
3.6 0.5 0
3.9 0.5 0
4.2 0.5 0
4.5 0.5 0
4.8 0.5 0
5.1 0.5 0
5.4 0.5 0
5.7 0.5 0
6 0.5 0
6.3 0.5 0
6.6 0.5 0
6.9 0.5 0
7.2 0.5 0
7.5 0.5 0
7.8 0.5 0
8.1 0.5 0
8.4 0.5 0
8.7 0.5 0
9 0.5 0
9.3 0.5 0
9.6 0.5 0
9.9 0.5 0
10.2 0.5 0
10.5 0.5 0
10.8 0.5 0
11.1 0.5 0
11.4 0.5 0
11.7 0.5 0
12 0.5 0
12.3 0.5 0
12.6 0.5 0
12.9 0.5 0
13.2 0.5 0
13.5 0.5 0
13.8 0.5 0
14.1 0.5 0
14.4 0.5 0
14.7 0.5 0
15 0.5 0
15.3 0.5 0
15.6 0.5 0
15.9 0.5 0
16.2 0.5 0
16.5 0.5 0
16.8 0.5 0
17.1 0.5 0
17.4 0.5 0
17.7 0.5 0
18 0.5 0
18.3 0.5 0
18.6 0.5 0
18.9 0.5 0
19.2 0.5 0
19.5 0.5 0
19.8 0.5 0
20.1 0.5 0
20.4 0.5 0
20.7 0.5 0
21 0.5 0
21.3 0.5 0
21.6 0.5 0
21.9 0.5 0
22.2 0.5 0
22.5 0.5 0
22.8 0.5 0
23.1 0.5 0
23.4 0.5 0
23.7 0.5 0
24 0.5 0
24.3 0.5 0
24.6 0.5 0
24.9 0.5 0
25.2 0.5 0
25.5 0.5 0
25.8 0.5 0
26.1 0.5 0
26.4 0.5 0
26.7 0.5 0
27 0.5 0
27.3 0.5 0
27.6 0.5 0
27.9 0.5 0
28.2 0.5 0
28.5 0.5 0
28.8 0.5 0
29.1 0.5 0
29.4 0.5 0
29.7 0.5 0
30 0.5 0
0 0.6 0
0.3 0.6 0
0.6 0.6 0
0.9 0.6 0
1.2 0.6 0
1.5 0.6 0
1.8 0.6 0
2.1 0.6 0
2.4 0.6 0
2.7 0.6 0
3 0.6 0
3.3 0.6 0
3.6 0.6 0
3.9 0.6 0
4.2 0.6 0
4.5 0.6 0
4.8 0.6 0
5.1 0.6 0
5.4 0.6 0
5.7 0.6 0
6 0.6 0
6.3 0.6 0
6.6 0.6 0
6.9 0.6 0
7.2 0.6 0
7.5 0.6 0
7.8 0.6 0
8.1 0.6 0
8.4 0.6 0
8.7 0.6 0
9 0.6 0
9.3 0.6 0
9.6 0.6 0
9.9 0.6 0
10.2 0.6 0
10.5 0.6 0
10.8 0.6 0
11.1 0.6 0
11.4 0.6 0
11.7 0.6 0
12 0.6 0
12.3 0.6 0
12.6 0.6 0
12.9 0.6 0
13.2 0.6 0
13.5 0.6 0
13.8 0.6 0
14.1 0.6 0
14.4 0.6 0
14.7 0.6 0
15 0.6 0
15.3 0.6 0
15.6 0.6 0
15.9 0.6 0
16.2 0.6 0
16.5 0.6 0
16.8 0.6 0
17.1 0.6 0
17.4 0.6 0
17.7 0.6 0
18 0.6 0
18.3 0.6 0
18.6 0.6 0
18.9 0.6 0
19.2 0.6 0
19.5 0.6 0
19.8 0.6 0
20.1 0.6 0
20.4 0.6 0
20.7 0.6 0
21 0.6 0
21.3 0.6 0
21.6 0.6 0
21.9 0.6 0
22.2 0.6 0
22.5 0.6 0
22.8 0.6 0
23.1 0.6 0
23.4 0.6 0
23.7 0.6 0
24 0.6 0
24.3 0.6 0
24.6 0.6 0
24.9 0.6 0
25.2 0.6 0
25.5 0.6 0
25.8 0.6 0
26.1 0.6 0
26.4 0.6 0
26.7 0.6 0
27 0.6 0
27.3 0.6 0
27.6 0.6 0
27.9 0.6 0
28.2 0.6 0
28.5 0.6 0
28.8 0.6 0
29.1 0.6 0
29.4 0.6 0
29.7 0.6 0
30 0.6 0
0 0.7 0
0.3 0.7 0
0.6 0.7 0
0.9 0.7 0
1.2 0.7 0
1.5 0.7 0
1.8 0.7 0
2.1 0.7 0
2.4 0.7 0
2.7 0.7 0
3 0.7 0
3.3 0.7 0
3.6 0.7 0
3.9 0.7 0
4.2 0.7 0
4.5 0.7 0
4.8 0.7 0
5.1 0.7 0
5.4 0.7 0
5.7 0.7 0
6 0.7 0
6.3 0.7 0
6.6 0.7 0
6.9 0.7 0
7.2 0.7 0
7.5 0.7 0
7.8 0.7 0
8.1 0.7 0
8.4 0.7 0
8.7 0.7 0
9 0.7 0
9.3 0.7 0
9.6 0.7 0
9.9 0.7 0
10.2 0.7 0
10.5 0.7 0
10.8 0.7 0
11.1 0.7 0
11.4 0.7 0
11.7 0.7 0
12 0.7 0
12.3 0.7 0
12.6 0.7 0
12.9 0.7 0
13.2 0.7 0
13.5 0.7 0
13.8 0.7 0
14.1 0.7 0
14.4 0.7 0
14.7 0.7 0
15 0.7 0
15.3 0.7 0
15.6 0.7 0
15.9 0.7 0
16.2 0.7 0
16.5 0.7 0
16.8 0.7 0
17.1 0.7 0
17.4 0.7 0
17.7 0.7 0
18 0.7 0
18.3 0.7 0
18.6 0.7 0
18.9 0.7 0
19.2 0.7 0
19.5 0.7 0
19.8 0.7 0
20.1 0.7 0
20.4 0.7 0
20.7 0.7 0
21 0.7 0
21.3 0.7 0
21.6 0.7 0
21.9 0.7 0
22.2 0.7 0
22.5 0.7 0
22.8 0.7 0
23.1 0.7 0
23.4 0.7 0
23.7 0.7 0
24 0.7 0
24.3 0.7 0
24.6 0.7 0
24.9 0.7 0
25.2 0.7 0
25.5 0.7 0
25.8 0.7 0
26.1 0.7 0
26.4 0.7 0
26.7 0.7 0
27 0.7 0
27.3 0.7 0
27.6 0.7 0
27.9 0.7 0
28.2 0.7 0
28.5 0.7 0
28.8 0.7 0
29.1 0.7 0
29.4 0.7 0
29.7 0.7 0
30 0.7 0
0 0.8 0
0.3 0.8 0
0.6 0.8 0
0.9 0.8 0
1.2 0.8 0
1.5 0.8 0
1.8 0.8 0
2.1 0.8 0
2.4 0.8 0
2.7 0.8 0
3 0.8 0
3.3 0.8 0
3.6 0.8 0
3.9 0.8 0
4.2 0.8 0
4.5 0.8 0
4.8 0.8 0
5.1 0.8 0
5.4 0.8 0
5.7 0.8 0
6 0.8 0
6.3 0.8 0
6.6 0.8 0
6.9 0.8 0
7.2 0.8 0
7.5 0.8 0
7.8 0.8 0
8.1 0.8 0
8.4 0.8 0
8.7 0.8 0
9 0.8 0
9.3 0.8 0
9.6 0.8 0
9.9 0.8 0
10.2 0.8 0
10.5 0.8 0
10.8 0.8 0
11.1 0.8 0
11.4 0.8 0
11.7 0.8 0
12 0.8 0
12.3 0.8 0
12.6 0.8 0
12.9 0.8 0
13.2 0.8 0
13.5 0.8 0
13.8 0.8 0
14.1 0.8 0
14.4 0.8 0
14.7 0.8 0
15 0.8 0
15.3 0.8 0
15.6 0.8 0
15.9 0.8 0
16.2 0.8 0
16.5 0.8 0
16.8 0.8 0
17.1 0.8 0
17.4 0.8 0
17.7 0.8 0
18 0.8 0
18.3 0.8 0
18.6 0.8 0
18.9 0.8 0
19.2 0.8 0
19.5 0.8 0
19.8 0.8 0
20.1 0.8 0
20.4 0.8 0
20.7 0.8 0
21 0.8 0
21.3 0.8 0
21.6 0.8 0
21.9 0.8 0
22.2 0.8 0
22.5 0.8 0
22.8 0.8 0
23.1 0.8 0
23.4 0.8 0
23.7 0.8 0
24 0.8 0
24.3 0.8 0
24.6 0.8 0
24.9 0.8 0
25.2 0.8 0
25.5 0.8 0
25.8 0.8 0
26.1 0.8 0
26.4 0.8 0
26.7 0.8 0
27 0.8 0
27.3 0.8 0
27.6 0.8 0
27.9 0.8 0
28.2 0.8 0
28.5 0.8 0
28.8 0.8 0
29.1 0.8 0
29.4 0.8 0
29.7 0.8 0
30 0.8 0
0 0.9 0
0.3 0.9 0
0.6 0.9 0
0.9 0.9 0
1.2 0.9 0
1.5 0.9 0
1.8 0.9 0
2.1 0.9 0
2.4 0.9 0
2.7 0.9 0
3 0.9 0
3.3 0.9 0
3.6 0.9 0
3.9 0.9 0
4.2 0.9 0
4.5 0.9 0
4.8 0.9 0
5.1 0.9 0
5.4 0.9 0
5.7 0.9 0
6 0.9 0
6.3 0.9 0
6.6 0.9 0
6.9 0.9 0
7.2 0.9 0
7.5 0.9 0
7.8 0.9 0
8.1 0.9 0
8.4 0.9 0
8.7 0.9 0
9 0.9 0
9.3 0.9 0
9.6 0.9 0
9.9 0.9 0
10.2 0.9 0
10.5 0.9 0
10.8 0.9 0
11.1 0.9 0
11.4 0.9 0
11.7 0.9 0
12 0.9 0
12.3 0.9 0
12.6 0.9 0
12.9 0.9 0
13.2 0.9 0
13.5 0.9 0
13.8 0.9 0
14.1 0.9 0
14.4 0.9 0
14.7 0.9 0
15 0.9 0
15.3 0.9 0
15.6 0.9 0
15.9 0.9 0
16.2 0.9 0
16.5 0.9 0
16.8 0.9 0
17.1 0.9 0
17.4 0.9 0
17.7 0.9 0
18 0.9 0
18.3 0.9 0
18.6 0.9 0
18.9 0.9 0
19.2 0.9 0
19.5 0.9 0
19.8 0.9 0
20.1 0.9 0
20.4 0.9 0
20.7 0.9 0
21 0.9 0
21.3 0.9 0
21.6 0.9 0
21.9 0.9 0
22.2 0.9 0
22.5 0.9 0
22.8 0.9 0
23.1 0.9 0
23.4 0.9 0
23.7 0.9 0
24 0.9 0
24.3 0.9 0
24.6 0.9 0
24.9 0.9 0
25.2 0.9 0
25.5 0.9 0
25.8 0.9 0
26.1 0.9 0
26.4 0.9 0
26.7 0.9 0
27 0.9 0
27.3 0.9 0
27.6 0.9 0
27.9 0.9 0
28.2 0.9 0
28.5 0.9 0
28.8 0.9 0
29.1 0.9 0
29.4 0.9 0
29.7 0.9 0
30 0.9 0
0 1 0
0.3 1 0
0.6 1 0
0.9 1 0
1.2 1 0
1.5 1 0
1.8 1 0
2.1 1 0
2.4 1 0
2.7 1 0
3 1 0
3.3 1 0
3.6 1 0
3.9 1 0
4.2 1 0
4.5 1 0
4.8 1 0
5.1 1 0
5.4 1 0
5.7 1 0
6 1 0
6.3 1 0
6.6 1 0
6.9 1 0
7.2 1 0
7.5 1 0
7.8 1 0
8.1 1 0
8.4 1 0
8.7 1 0
9 1 0
9.3 1 0
9.6 1 0
9.9 1 0
10.2 1 0
10.5 1 0
10.8 1 0
11.1 1 0
11.4 1 0
11.7 1 0
12 1 0
12.3 1 0
12.6 1 0
12.9 1 0
13.2 1 0
13.5 1 0
13.8 1 0
14.1 1 0
14.4 1 0
14.7 1 0
15 1 0
15.3 1 0
15.6 1 0
15.9 1 0
16.2 1 0
16.5 1 0
16.8 1 0
17.1 1 0
17.4 1 0
17.7 1 0
18 1 0
18.3 1 0
18.6 1 0
18.9 1 0
19.2 1 0
19.5 1 0
19.8 1 0
20.1 1 0
20.4 1 0
20.7 1 0
21 1 0
21.3 1 0
21.6 1 0
21.9 1 0
22.2 1 0
22.5 1 0
22.8 1 0
23.1 1 0
23.4 1 0
23.7 1 0
24 1 0
24.3 1 0
24.6 1 0
24.9 1 0
25.2 1 0
25.5 1 0
25.8 1 0
26.1 1 0
26.4 1 0
26.7 1 0
27 1 0
27.3 1 0
27.6 1 0
27.9 1 0
28.2 1 0
28.5 1 0
28.8 1 0
29.1 1 0
29.4 1 0
29.7 1 0
30 1 0

POINT_DATA 1111

SCALARS phi double
LOOKUP_TABLE default
1
1
1
0.999994
0.999972
0.999915
0.999796
0.999583
0.99924
0.998736
0.998042
0.997136
0.996001
0.994626
0.993006
0.991141
0.989033
0.986688
0.984114
0.981322
0.978323
0.975131
0.971763
0.968232
0.96454
0.960674
0.956592
0.95222
0.947452
0.942161
0.936207
0.929452
0.921771
0.913059
0.903239
0.892264
0.880113
0.866793
0.852333
0.836783
0.82021
0.802694
0.784322
0.765191
0.745401
0.725051
0.704243
0.683075
0.661639
0.640026
0.618318
0.596594
0.574925
0.553375
0.532001
0.510857
0.489987
0.469432
0.449225
0.429395
0.409968
0.390963
0.372396
0.354281
0.336626
0.319439
0.302724
0.286482
0.270716
0.255424
0.240603
0.226252
0.212367
0.198945
0.18598
0.173471
0.161415
0.149807
0.138648
0.127935
0.11767
0.107854
0.0984885
0.0895771
0.0811235
0.073132
0.0656067
0.0585511
0.0519677
0.0458574
0.0402187
0.0350478
0.0303374
0.026077
0.0222532
0.0188458
0.0158447
0.0131846
0.0110022
0.00862712
0.00862712
1
1
1
0.999994
0.999972
0.999915
0.999796
0.999583
0.99924
0.998736
0.998042
0.997136
0.996001
0.994626
0.993006
0.991141
0.989033
0.986688
0.984114
0.981322
0.978323
0.975131
0.971763
0.968232
0.96454
0.960674
0.956592
0.95222
0.947452
0.942161
0.936207
0.929452
0.921771
0.913059
0.903239
0.892264
0.880113
0.866793
0.852333
0.836783
0.82021
0.802694
0.784322
0.765191
0.745401
0.725051
0.704243
0.683075
0.661639
0.640026
0.618318
0.596594
0.574925
0.553375
0.532001
0.510857
0.489987
0.469432
0.449225
0.429395
0.409968
0.390963
0.372396
0.354281
0.336626
0.319439
0.302724
0.286482
0.270716
0.255424
0.240603
0.226252
0.212367
0.198945
0.18598
0.173471
0.161415
0.149807
0.138648
0.127935
0.11767
0.107854
0.0984885
0.0895771
0.0811235
0.073132
0.0656067
0.0585511
0.0519677
0.0458574
0.0402187
0.0350478
0.0303374
0.026077
0.0222532
0.0188458
0.0158447
0.0131846
0.0110022
0.00862712
0.00862712
0.999997
1
0.999982
0.999903
0.99973
0.999422
0.998942
0.998257
0.99734
0.996174
0.994748
0.993059
0.991109
0.988905
0.986455
0.983772
0.98087
0.977762
0.974464
0.97099
0.967355
0.963574
0.959662
0.955632
0.951498
0.947268
0.94294
0.938505
0.933933
0.92918
0.924187
0.91888
0.913177
0.906992
0.900241
0.892849
0.884747
0.875883
0.866218
0.855726
0.8444
0.832244
0.819278
0.805532
0.791046
0.775869
0.760056
0.743668
0.726766
0.709418
0.691687
0.67364
0.655341
0.636851
0.618228
0.599529
0.580805
0.562105
0.543473
0.524951
0.506573
0.488374
0.470383
0.452625
0.435123
0.417896
0.400959
0.384327
0.36801
0.352016
0.336351
0.321018
0.306021
0.291357
0.277026
0.263025
0.249349
0.235992
0.222948
0.210211
0.197773
0.185629
0.173775
0.162208
0.150928
0.13994
0.129251
0.118874
0.108826
0.0991292
0.0898082
0.0808911
0.0724072
0.0643851
0.0568545
0.0498292
0.0433649
0.0373341
0.0322592
0.0262261
0.0262261
1
0.999999
0.99946
0.998318
0.996569
0.994237
0.991359
0.987986
0.984174
0.979985
0.975479
0.970715
0.965744
0.960613
0.955362
0.950025
0.944629
0.9392
0.933755
0.928313
0.922885
0.917483
0.912115
0.906789
0.90151
0.896283
0.89111
0.88599
0.88092
0.875889
0.870882
0.865876
0.860841
0.855742
0.850537
0.845182
0.839629
0.833829
0.827737
0.821309
0.814504
0.807286
0.799629
0.791507
0.782906
0.773816
0.764233
0.754161
0.74361
0.732592
0.721127
0.709237
0.696947
0.684285
0.671283
0.657971
0.644381
0.630546
0.616499
0.602272
0.587896
0.573401
0.558816
0.544168
0.529483
0.514786
0.500099
0.485441
0.470831
0.456287
0.441821
0.427446
0.413171
0.399006
0.384954
0.371019
0.357201
0.343497
0.329901
0.316405
0.302998
0.289666
0.276394
0.263166
0.249965
0.23678
0.223599
0.210422
0.197254
0.184112
0.171025
0.158035
0.145196
0.132572
0.120245
0.10827
0.0968266
0.0856495
0.0760391
0.0637684
0.0637684
1.00152
0.998478
0.989845
0.978523
0.966041
0.953192
0.940393
0.927875
0.915766
0.904141
0.893035
0.882463
0.87242
0.862891
0.853856
0.845287
0.837157
0.829439
0.822103
0.815125
0.808478
0.802139
0.796087
0.790301
0.784762
0.779454
0.774361
0.769467
0.764759
0.760223
0.755846
0.751612
0.747505
0.743509
0.739602
0.735765
0.731973
0.7282
0.72442
0.720606
0.716727
0.712755
0.708662
0.70442
0.700002
0.695384
0.690543
0.685459
0.680115
0.674495
0.668588
0.662385
0.655879
0.649066
0.641945
0.634517
0.626786
0.618756
0.610434
0.601829
0.59295
0.583808
0.574415
0.564782
0.554921
0.544846
0.534569
0.524104
0.513462
0.502655
0.491696
0.480595
0.469361
0.458005
0.446532
0.434949
0.423259
0.411463
0.399559
0.387542
0.375402
0.363125
0.350691
0.338079
0.325261
0.31221
0.298897
0.285299
0.271396
0.257182
0.242664
0.227868
0.21284
0.197645
0.182383
0.167118
0.152134
0.137
0.123801
0.106064
0.106064
1.04956
0.950436
0.872951
0.815234
0.771993
0.739004
0.713323
0.692935
0.676455
0.662919
0.651641
0.642125
0.634005
0.627008
0.620923
0.61559
0.61088
0.606694
0.60295
0.599584
0.596543
0.593782
0.591266
0.588964
0.586851
0.584905
0.583109
0.581447
0.579906
0.578473
0.577138
0.575891
0.574725
0.57363
0.572597
0.571619
0.570685
0.569785
0.56891
0.568046
0.567183
0.566306
0.5654
0.564451
0.563444
0.562361
0.561186
0.559902
0.558493
0.556942
0.555232
0.553348
0.551274
0.548997
0.546502
0.543776
0.540809
0.53759
0.534109
0.530358
0.52633
0.522018
0.517418
0.512527
0.50734
0.501857
0.496076
0.489998
0.483624
0.476955
0.469995
0.462744
0.455208
0.447389
0.43929
0.430913
0.422261
0.413332
0.404125
0.394635
0.384852
0.374764
0.364351
0.35359
0.342454
0.33091
0.318926
0.30647
0.293516
0.280046
0.26606
0.251573
0.236625
0.221276
0.205633
0.189756
0.173971
0.157776
0.143561
0.124028
0.124028
-0.0440411
0.0440411
0.104658
0.147826
0.179978
0.204969
0.22512
0.241852
0.256065
0.268346
0.279103
0.288632
0.297153
0.30484
0.31183
0.318232
0.324136
0.329615
0.334729
0.339527
0.344051
0.348335
0.352408
0.356294
0.360014
0.363586
0.367024
0.370342
0.373551
0.376661
0.379679
0.382613
0.38547
0.388254
0.390971
0.393622
0.396212
0.398741
0.401211
0.403619
0.405965
0.408246
0.410458
0.412594
0.414649
0.416615
0.418482
0.420241
0.42188
0.423387
0.424748
0.425951
0.426981
0.427823
0.428462
0.428884
0.429072
0.429012
0.42869
0.428092
0.427204
0.426014
0.42451
0.422682
0.420519
0.418013
0.415157
0.411946
0.408373
0.404437
0.400133
0.395461
0.390421
0.385011
0.379233
0.373087
0.366573
0.359689
0.352433
0.3448
0.336781
0.328365
0.319537
0.310279
0.300568
0.290383
0.279703
0.26851
0.256795
0.244558
0.231818
0.218609
0.204989
0.191034
0.176857
0.162532
0.148357
0.133922
0.121279
0.104141
0.104141
-0.00135393
0.00135393
0.00757106
0.0154113
0.0241244
0.0333479
0.0428736
0.0525556
0.0622788
0.0719501
0.0814969
0.0908662
0.100022
0.108944
0.11762
0.126049
0.134233
0.142179
0.149896
0.157395
0.164687
0.171781
0.178688
0.185419
0.191982
0.198387
0.204641
0.210752
0.216727
0.222571
0.22829
0.233889
0.239372
0.244744
0.250006
0.255161
0.26021
0.265152
0.269988
0.274714
0.279328
0.283825
0.288199
0.292443
0.296548
0.300506
0.304304
0.307932
0.311376
0.314624
0.31766
0.32047
0.323039
0.325351
0.327391
0.329144
0.330595
0.33173
0.332535
0.332996
0.333103
0.332844
0.33221
0.331193
0.329787
0.327985
0.325785
0.323185
0.320183
0.316781
0.31298
0.308785
0.304199
0.299226
0.293872
0.288142
0.282041
0.275573
0.26874
0.261545
0.253987
0.246066
0.23778
0.229127
0.220108
0.210726
0.200988
0.190909
0.180516
0.169843
0.15894
0.147868
0.136702
0.125527
0.114446
0.103532
0.0929842
0.0825664
0.0735539
0.0619059
0.0619059
-1.12304e-05
1.12304e-05
0.000371135
0.00113545
0.00236809
0.00411785
0.00641416
0.00926464
0.0126562
0.0165593
0.020933
0.0257304
0.0309028
0.036402
0.0421822
0.0482009
0.0544193
0.0608023
0.0673182
0.0739389
0.080639
0.087396
0.0941902
0.101004
0.107821
0.114629
0.121414
0.128167
0.134878
0.141538
0.14814
0.154676
0.161139
0.167522
0.173815
0.180011
0.186099
0.192069
0.197909
0.203606
0.209146
0.214513
0.219691
0.224665
0.229415
0.233925
0.238176
0.24215
0.245831
0.249199
0.252239
0.254933
0.257268
0.25923
0.260804
0.261981
0.262749
0.263102
0.263032
0.262536
0.261609
0.260252
0.258465
0.256252
0.253616
0.250566
0.247109
0.243256
0.239017
0.234407
0.229439
0.224128
0.218491
0.212544
0.206304
0.199789
0.193016
0.186004
0.178769
0.171332
0.16371
0.155924
0.147996
0.13995
0.131812
0.123613
0.115387
0.107172
0.0990112
0.0909498
0.0830373
0.0753247
0.0678636
0.0607034
0.0538934
0.0474661
0.041493
0.0358664
0.0311038
0.0253815
0.0253815
1.70138e-06
-1.70138e-06
1.49765e-05
9.33843e-05
0.000299335
0.000718214
0.00144362
0.00256259
0.00414307
0.0062276
0.00883329
0.0119559
0.0155752
0.0196605
0.0241747
0.0290772
0.0343266
0.0398817
0.0457028
0.0517522
0.0579944
0.0643967
0.0709289
0.0775636
0.0842758
0.0910433
0.0978459
0.104665
0.111484
0.118287
0.125059
0.131783
0.138444
0.145026
0.151509
0.157875
0.164103
0.170172
0.176059
0.18174
0.187193
0.192393
0.197315
0.201937
0.206235
0.210188
0.213774
0.216974
0.219771
0.222148
0.224091
0.225588
0.226629
0.227207
0.227317
0.226955
0.226121
0.224817
0.223047
0.220819
0.21814
0.215021
0.211477
0.207523
0.203175
0.198452
0.193376
0.187968
0.182253
0.176254
0.169998
0.163512
0.156824
0.149963
0.14296
0.135843
0.128645
0.121398
0.114133
0.106883
0.0996829
0.092565
0.0855633
0.0787112
0.0720416
0.0655864
0.059376
0.0534387
0.0478002
0.0424829
0.037505
0.0328808
0.0286194
0.0247249
0.021197
0.018027
0.0152146
0.0127044
0.0106352
0.00836619
0.00836619
1.70138e-06
-1.70138e-06
1.49765e-05
9.33843e-05
0.000299335
0.000718214
0.00144362
0.00256259
0.00414307
0.0062276
0.00883329
0.0119559
0.0155752
0.0196605
0.0241747
0.0290772
0.0343266
0.0398817
0.0457028
0.0517522
0.0579944
0.0643967
0.0709289
0.0775636
0.0842758
0.0910433
0.0978459
0.104665
0.111484
0.118287
0.125059
0.131783
0.138444
0.145026
0.151509
0.157875
0.164103
0.170172
0.176059
0.18174
0.187193
0.192393
0.197315
0.201937
0.206235
0.210188
0.213774
0.216974
0.219771
0.222148
0.224091
0.225588
0.226629
0.227207
0.227317
0.226955
0.226121
0.224817
0.223047
0.220819
0.21814
0.215021
0.211477
0.207523
0.203175
0.198452
0.193376
0.187968
0.182253
0.176254
0.169998
0.163512
0.156824
0.149963
0.14296
0.135843
0.128645
0.121398
0.114133
0.106883
0.0996829
0.092565
0.0855633
0.0787112
0.0720416
0.0655864
0.059376
0.0534387
0.0478002
0.0424829
0.037505
0.0328808
0.0286194
0.0247249
0.021197
0.018027
0.0152146
0.0127044
0.0106352
0.00836619
0.00836619
