# vtk DataFile Version 2.0
FlowField
ASCII
DATASET STRUCTURED_GRID
DIMENSIONS 102 1 12 
POINTS 1224 double
0 0 0
0.4 0 0
0.8 0 0
1.2 0 0
1.6 0 0
2 0 0
2.4 0 0
2.8 0 0
3.2 0 0
3.6 0 0
4 0 0
4.4 0 0
4.8 0 0
5.2 0 0
5.6 0 0
6 0 0
6.4 0 0
6.8 0 0
7.2 0 0
7.6 0 0
8 0 0
8.4 0 0
8.8 0 0
9.2 0 0
9.6 0 0
10 0 0
10.4 0 0
10.8 0 0
11.2 0 0
11.6 0 0
12 0 0
12.4 0 0
12.8 0 0
13.2 0 0
13.6 0 0
14 0 0
14.4 0 0
14.8 0 0
15.2 0 0
15.6 0 0
16 0 0
16.4 0 0
16.8 0 0
17.2 0 0
17.6 0 0
18 0 0
18.4 0 0
18.8 0 0
19.2 0 0
19.6 0 0
20 0 0
20.4 0 0
20.8 0 0
21.2 0 0
21.6 0 0
22 0 0
22.4 0 0
22.8 0 0
23.2 0 0
23.6 0 0
24 0 0
24.4 0 0
24.8 0 0
25.2 0 0
25.6 0 0
26 0 0
26.4 0 0
26.8 0 0
27.2 0 0
27.6 0 0
28 0 0
28.4 0 0
28.8 0 0
29.2 0 0
29.6 0 0
30 0 0
30.4 0 0
30.8 0 0
31.2 0 0
31.6 0 0
32 0 0
32.4 0 0
32.8 0 0
33.2 0 0
33.6 0 0
34 0 0
34.4 0 0
34.8 0 0
35.2 0 0
35.6 0 0
36 0 0
36.4 0 0
36.8 0 0
37.2 0 0
37.6 0 0
38 0 0
38.4 0 0
38.8 0 0
39.2 0 0
39.6 0 0
40 0 0
40.4 0 0
0 0.1 0
0.4 0.1 0
0.8 0.1 0
1.2 0.1 0
1.6 0.1 0
2 0.1 0
2.4 0.1 0
2.8 0.1 0
3.2 0.1 0
3.6 0.1 0
4 0.1 0
4.4 0.1 0
4.8 0.1 0
5.2 0.1 0
5.6 0.1 0
6 0.1 0
6.4 0.1 0
6.8 0.1 0
7.2 0.1 0
7.6 0.1 0
8 0.1 0
8.4 0.1 0
8.8 0.1 0
9.2 0.1 0
9.6 0.1 0
10 0.1 0
10.4 0.1 0
10.8 0.1 0
11.2 0.1 0
11.6 0.1 0
12 0.1 0
12.4 0.1 0
12.8 0.1 0
13.2 0.1 0
13.6 0.1 0
14 0.1 0
14.4 0.1 0
14.8 0.1 0
15.2 0.1 0
15.6 0.1 0
16 0.1 0
16.4 0.1 0
16.8 0.1 0
17.2 0.1 0
17.6 0.1 0
18 0.1 0
18.4 0.1 0
18.8 0.1 0
19.2 0.1 0
19.6 0.1 0
20 0.1 0
20.4 0.1 0
20.8 0.1 0
21.2 0.1 0
21.6 0.1 0
22 0.1 0
22.4 0.1 0
22.8 0.1 0
23.2 0.1 0
23.6 0.1 0
24 0.1 0
24.4 0.1 0
24.8 0.1 0
25.2 0.1 0
25.6 0.1 0
26 0.1 0
26.4 0.1 0
26.8 0.1 0
27.2 0.1 0
27.6 0.1 0
28 0.1 0
28.4 0.1 0
28.8 0.1 0
29.2 0.1 0
29.6 0.1 0
30 0.1 0
30.4 0.1 0
30.8 0.1 0
31.2 0.1 0
31.6 0.1 0
32 0.1 0
32.4 0.1 0
32.8 0.1 0
33.2 0.1 0
33.6 0.1 0
34 0.1 0
34.4 0.1 0
34.8 0.1 0
35.2 0.1 0
35.6 0.1 0
36 0.1 0
36.4 0.1 0
36.8 0.1 0
37.2 0.1 0
37.6 0.1 0
38 0.1 0
38.4 0.1 0
38.8 0.1 0
39.2 0.1 0
39.6 0.1 0
40 0.1 0
40.4 0.1 0
0 0.2 0
0.4 0.2 0
0.8 0.2 0
1.2 0.2 0
1.6 0.2 0
2 0.2 0
2.4 0.2 0
2.8 0.2 0
3.2 0.2 0
3.6 0.2 0
4 0.2 0
4.4 0.2 0
4.8 0.2 0
5.2 0.2 0
5.6 0.2 0
6 0.2 0
6.4 0.2 0
6.8 0.2 0
7.2 0.2 0
7.6 0.2 0
8 0.2 0
8.4 0.2 0
8.8 0.2 0
9.2 0.2 0
9.6 0.2 0
10 0.2 0
10.4 0.2 0
10.8 0.2 0
11.2 0.2 0
11.6 0.2 0
12 0.2 0
12.4 0.2 0
12.8 0.2 0
13.2 0.2 0
13.6 0.2 0
14 0.2 0
14.4 0.2 0
14.8 0.2 0
15.2 0.2 0
15.6 0.2 0
16 0.2 0
16.4 0.2 0
16.8 0.2 0
17.2 0.2 0
17.6 0.2 0
18 0.2 0
18.4 0.2 0
18.8 0.2 0
19.2 0.2 0
19.6 0.2 0
20 0.2 0
20.4 0.2 0
20.8 0.2 0
21.2 0.2 0
21.6 0.2 0
22 0.2 0
22.4 0.2 0
22.8 0.2 0
23.2 0.2 0
23.6 0.2 0
24 0.2 0
24.4 0.2 0
24.8 0.2 0
25.2 0.2 0
25.6 0.2 0
26 0.2 0
26.4 0.2 0
26.8 0.2 0
27.2 0.2 0
27.6 0.2 0
28 0.2 0
28.4 0.2 0
28.8 0.2 0
29.2 0.2 0
29.6 0.2 0
30 0.2 0
30.4 0.2 0
30.8 0.2 0
31.2 0.2 0
31.6 0.2 0
32 0.2 0
32.4 0.2 0
32.8 0.2 0
33.2 0.2 0
33.6 0.2 0
34 0.2 0
34.4 0.2 0
34.8 0.2 0
35.2 0.2 0
35.6 0.2 0
36 0.2 0
36.4 0.2 0
36.8 0.2 0
37.2 0.2 0
37.6 0.2 0
38 0.2 0
38.4 0.2 0
38.8 0.2 0
39.2 0.2 0
39.6 0.2 0
40 0.2 0
40.4 0.2 0
0 0.3 0
0.4 0.3 0
0.8 0.3 0
1.2 0.3 0
1.6 0.3 0
2 0.3 0
2.4 0.3 0
2.8 0.3 0
3.2 0.3 0
3.6 0.3 0
4 0.3 0
4.4 0.3 0
4.8 0.3 0
5.2 0.3 0
5.6 0.3 0
6 0.3 0
6.4 0.3 0
6.8 0.3 0
7.2 0.3 0
7.6 0.3 0
8 0.3 0
8.4 0.3 0
8.8 0.3 0
9.2 0.3 0
9.6 0.3 0
10 0.3 0
10.4 0.3 0
10.8 0.3 0
11.2 0.3 0
11.6 0.3 0
12 0.3 0
12.4 0.3 0
12.8 0.3 0
13.2 0.3 0
13.6 0.3 0
14 0.3 0
14.4 0.3 0
14.8 0.3 0
15.2 0.3 0
15.6 0.3 0
16 0.3 0
16.4 0.3 0
16.8 0.3 0
17.2 0.3 0
17.6 0.3 0
18 0.3 0
18.4 0.3 0
18.8 0.3 0
19.2 0.3 0
19.6 0.3 0
20 0.3 0
20.4 0.3 0
20.8 0.3 0
21.2 0.3 0
21.6 0.3 0
22 0.3 0
22.4 0.3 0
22.8 0.3 0
23.2 0.3 0
23.6 0.3 0
24 0.3 0
24.4 0.3 0
24.8 0.3 0
25.2 0.3 0
25.6 0.3 0
26 0.3 0
26.4 0.3 0
26.8 0.3 0
27.2 0.3 0
27.6 0.3 0
28 0.3 0
28.4 0.3 0
28.8 0.3 0
29.2 0.3 0
29.6 0.3 0
30 0.3 0
30.4 0.3 0
30.8 0.3 0
31.2 0.3 0
31.6 0.3 0
32 0.3 0
32.4 0.3 0
32.8 0.3 0
33.2 0.3 0
33.6 0.3 0
34 0.3 0
34.4 0.3 0
34.8 0.3 0
35.2 0.3 0
35.6 0.3 0
36 0.3 0
36.4 0.3 0
36.8 0.3 0
37.2 0.3 0
37.6 0.3 0
38 0.3 0
38.4 0.3 0
38.8 0.3 0
39.2 0.3 0
39.6 0.3 0
40 0.3 0
40.4 0.3 0
0 0.4 0
0.4 0.4 0
0.8 0.4 0
1.2 0.4 0
1.6 0.4 0
2 0.4 0
2.4 0.4 0
2.8 0.4 0
3.2 0.4 0
3.6 0.4 0
4 0.4 0
4.4 0.4 0
4.8 0.4 0
5.2 0.4 0
5.6 0.4 0
6 0.4 0
6.4 0.4 0
6.8 0.4 0
7.2 0.4 0
7.6 0.4 0
8 0.4 0
8.4 0.4 0
8.8 0.4 0
9.2 0.4 0
9.6 0.4 0
10 0.4 0
10.4 0.4 0
10.8 0.4 0
11.2 0.4 0
11.6 0.4 0
12 0.4 0
12.4 0.4 0
12.8 0.4 0
13.2 0.4 0
13.6 0.4 0
14 0.4 0
14.4 0.4 0
14.8 0.4 0
15.2 0.4 0
15.6 0.4 0
16 0.4 0
16.4 0.4 0
16.8 0.4 0
17.2 0.4 0
17.6 0.4 0
18 0.4 0
18.4 0.4 0
18.8 0.4 0
19.2 0.4 0
19.6 0.4 0
20 0.4 0
20.4 0.4 0
20.8 0.4 0
21.2 0.4 0
21.6 0.4 0
22 0.4 0
22.4 0.4 0
22.8 0.4 0
23.2 0.4 0
23.6 0.4 0
24 0.4 0
24.4 0.4 0
24.8 0.4 0
25.2 0.4 0
25.6 0.4 0
26 0.4 0
26.4 0.4 0
26.8 0.4 0
27.2 0.4 0
27.6 0.4 0
28 0.4 0
28.4 0.4 0
28.8 0.4 0
29.2 0.4 0
29.6 0.4 0
30 0.4 0
30.4 0.4 0
30.8 0.4 0
31.2 0.4 0
31.6 0.4 0
32 0.4 0
32.4 0.4 0
32.8 0.4 0
33.2 0.4 0
33.6 0.4 0
34 0.4 0
34.4 0.4 0
34.8 0.4 0
35.2 0.4 0
35.6 0.4 0
36 0.4 0
36.4 0.4 0
36.8 0.4 0
37.2 0.4 0
37.6 0.4 0
38 0.4 0
38.4 0.4 0
38.8 0.4 0
39.2 0.4 0
39.6 0.4 0
40 0.4 0
40.4 0.4 0
0 0.5 0
0.4 0.5 0
0.8 0.5 0
1.2 0.5 0
1.6 0.5 0
2 0.5 0
2.4 0.5 0
2.8 0.5 0
3.2 0.5 0
3.6 0.5 0
4 0.5 0
4.4 0.5 0
4.8 0.5 0
5.2 0.5 0
5.6 0.5 0
6 0.5 0
6.4 0.5 0
6.8 0.5 0
7.2 0.5 0
7.6 0.5 0
8 0.5 0
8.4 0.5 0
8.8 0.5 0
9.2 0.5 0
9.6 0.5 0
10 0.5 0
10.4 0.5 0
10.8 0.5 0
11.2 0.5 0
11.6 0.5 0
12 0.5 0
12.4 0.5 0
12.8 0.5 0
13.2 0.5 0
13.6 0.5 0
14 0.5 0
14.4 0.5 0
14.8 0.5 0
15.2 0.5 0
15.6 0.5 0
16 0.5 0
16.4 0.5 0
16.8 0.5 0
17.2 0.5 0
17.6 0.5 0
18 0.5 0
18.4 0.5 0
18.8 0.5 0
19.2 0.5 0
19.6 0.5 0
20 0.5 0
20.4 0.5 0
20.8 0.5 0
21.2 0.5 0
21.6 0.5 0
22 0.5 0
22.4 0.5 0
22.8 0.5 0
23.2 0.5 0
23.6 0.5 0
24 0.5 0
24.4 0.5 0
24.8 0.5 0
25.2 0.5 0
25.6 0.5 0
26 0.5 0
26.4 0.5 0
26.8 0.5 0
27.2 0.5 0
27.6 0.5 0
28 0.5 0
28.4 0.5 0
28.8 0.5 0
29.2 0.5 0
29.6 0.5 0
30 0.5 0
30.4 0.5 0
30.8 0.5 0
31.2 0.5 0
31.6 0.5 0
32 0.5 0
32.4 0.5 0
32.8 0.5 0
33.2 0.5 0
33.6 0.5 0
34 0.5 0
34.4 0.5 0
34.8 0.5 0
35.2 0.5 0
35.6 0.5 0
36 0.5 0
36.4 0.5 0
36.8 0.5 0
37.2 0.5 0
37.6 0.5 0
38 0.5 0
38.4 0.5 0
38.8 0.5 0
39.2 0.5 0
39.6 0.5 0
40 0.5 0
40.4 0.5 0
0 0.6 0
0.4 0.6 0
0.8 0.6 0
1.2 0.6 0
1.6 0.6 0
2 0.6 0
2.4 0.6 0
2.8 0.6 0
3.2 0.6 0
3.6 0.6 0
4 0.6 0
4.4 0.6 0
4.8 0.6 0
5.2 0.6 0
5.6 0.6 0
6 0.6 0
6.4 0.6 0
6.8 0.6 0
7.2 0.6 0
7.6 0.6 0
8 0.6 0
8.4 0.6 0
8.8 0.6 0
9.2 0.6 0
9.6 0.6 0
10 0.6 0
10.4 0.6 0
10.8 0.6 0
11.2 0.6 0
11.6 0.6 0
12 0.6 0
12.4 0.6 0
12.8 0.6 0
13.2 0.6 0
13.6 0.6 0
14 0.6 0
14.4 0.6 0
14.8 0.6 0
15.2 0.6 0
15.6 0.6 0
16 0.6 0
16.4 0.6 0
16.8 0.6 0
17.2 0.6 0
17.6 0.6 0
18 0.6 0
18.4 0.6 0
18.8 0.6 0
19.2 0.6 0
19.6 0.6 0
20 0.6 0
20.4 0.6 0
20.8 0.6 0
21.2 0.6 0
21.6 0.6 0
22 0.6 0
22.4 0.6 0
22.8 0.6 0
23.2 0.6 0
23.6 0.6 0
24 0.6 0
24.4 0.6 0
24.8 0.6 0
25.2 0.6 0
25.6 0.6 0
26 0.6 0
26.4 0.6 0
26.8 0.6 0
27.2 0.6 0
27.6 0.6 0
28 0.6 0
28.4 0.6 0
28.8 0.6 0
29.2 0.6 0
29.6 0.6 0
30 0.6 0
30.4 0.6 0
30.8 0.6 0
31.2 0.6 0
31.6 0.6 0
32 0.6 0
32.4 0.6 0
32.8 0.6 0
33.2 0.6 0
33.6 0.6 0
34 0.6 0
34.4 0.6 0
34.8 0.6 0
35.2 0.6 0
35.6 0.6 0
36 0.6 0
36.4 0.6 0
36.8 0.6 0
37.2 0.6 0
37.6 0.6 0
38 0.6 0
38.4 0.6 0
38.8 0.6 0
39.2 0.6 0
39.6 0.6 0
40 0.6 0
40.4 0.6 0
0 0.7 0
0.4 0.7 0
0.8 0.7 0
1.2 0.7 0
1.6 0.7 0
2 0.7 0
2.4 0.7 0
2.8 0.7 0
3.2 0.7 0
3.6 0.7 0
4 0.7 0
4.4 0.7 0
4.8 0.7 0
5.2 0.7 0
5.6 0.7 0
6 0.7 0
6.4 0.7 0
6.8 0.7 0
7.2 0.7 0
7.6 0.7 0
8 0.7 0
8.4 0.7 0
8.8 0.7 0
9.2 0.7 0
9.6 0.7 0
10 0.7 0
10.4 0.7 0
10.8 0.7 0
11.2 0.7 0
11.6 0.7 0
12 0.7 0
12.4 0.7 0
12.8 0.7 0
13.2 0.7 0
13.6 0.7 0
14 0.7 0
14.4 0.7 0
14.8 0.7 0
15.2 0.7 0
15.6 0.7 0
16 0.7 0
16.4 0.7 0
16.8 0.7 0
17.2 0.7 0
17.6 0.7 0
18 0.7 0
18.4 0.7 0
18.8 0.7 0
19.2 0.7 0
19.6 0.7 0
20 0.7 0
20.4 0.7 0
20.8 0.7 0
21.2 0.7 0
21.6 0.7 0
22 0.7 0
22.4 0.7 0
22.8 0.7 0
23.2 0.7 0
23.6 0.7 0
24 0.7 0
24.4 0.7 0
24.8 0.7 0
25.2 0.7 0
25.6 0.7 0
26 0.7 0
26.4 0.7 0
26.8 0.7 0
27.2 0.7 0
27.6 0.7 0
28 0.7 0
28.4 0.7 0
28.8 0.7 0
29.2 0.7 0
29.6 0.7 0
30 0.7 0
30.4 0.7 0
30.8 0.7 0
31.2 0.7 0
31.6 0.7 0
32 0.7 0
32.4 0.7 0
32.8 0.7 0
33.2 0.7 0
33.6 0.7 0
34 0.7 0
34.4 0.7 0
34.8 0.7 0
35.2 0.7 0
35.6 0.7 0
36 0.7 0
36.4 0.7 0
36.8 0.7 0
37.2 0.7 0
37.6 0.7 0
38 0.7 0
38.4 0.7 0
38.8 0.7 0
39.2 0.7 0
39.6 0.7 0
40 0.7 0
40.4 0.7 0
0 0.8 0
0.4 0.8 0
0.8 0.8 0
1.2 0.8 0
1.6 0.8 0
2 0.8 0
2.4 0.8 0
2.8 0.8 0
3.2 0.8 0
3.6 0.8 0
4 0.8 0
4.4 0.8 0
4.8 0.8 0
5.2 0.8 0
5.6 0.8 0
6 0.8 0
6.4 0.8 0
6.8 0.8 0
7.2 0.8 0
7.6 0.8 0
8 0.8 0
8.4 0.8 0
8.8 0.8 0
9.2 0.8 0
9.6 0.8 0
10 0.8 0
10.4 0.8 0
10.8 0.8 0
11.2 0.8 0
11.6 0.8 0
12 0.8 0
12.4 0.8 0
12.8 0.8 0
13.2 0.8 0
13.6 0.8 0
14 0.8 0
14.4 0.8 0
14.8 0.8 0
15.2 0.8 0
15.6 0.8 0
16 0.8 0
16.4 0.8 0
16.8 0.8 0
17.2 0.8 0
17.6 0.8 0
18 0.8 0
18.4 0.8 0
18.8 0.8 0
19.2 0.8 0
19.6 0.8 0
20 0.8 0
20.4 0.8 0
20.8 0.8 0
21.2 0.8 0
21.6 0.8 0
22 0.8 0
22.4 0.8 0
22.8 0.8 0
23.2 0.8 0
23.6 0.8 0
24 0.8 0
24.4 0.8 0
24.8 0.8 0
25.2 0.8 0
25.6 0.8 0
26 0.8 0
26.4 0.8 0
26.8 0.8 0
27.2 0.8 0
27.6 0.8 0
28 0.8 0
28.4 0.8 0
28.8 0.8 0
29.2 0.8 0
29.6 0.8 0
30 0.8 0
30.4 0.8 0
30.8 0.8 0
31.2 0.8 0
31.6 0.8 0
32 0.8 0
32.4 0.8 0
32.8 0.8 0
33.2 0.8 0
33.6 0.8 0
34 0.8 0
34.4 0.8 0
34.8 0.8 0
35.2 0.8 0
35.6 0.8 0
36 0.8 0
36.4 0.8 0
36.8 0.8 0
37.2 0.8 0
37.6 0.8 0
38 0.8 0
38.4 0.8 0
38.8 0.8 0
39.2 0.8 0
39.6 0.8 0
40 0.8 0
40.4 0.8 0
0 0.9 0
0.4 0.9 0
0.8 0.9 0
1.2 0.9 0
1.6 0.9 0
2 0.9 0
2.4 0.9 0
2.8 0.9 0
3.2 0.9 0
3.6 0.9 0
4 0.9 0
4.4 0.9 0
4.8 0.9 0
5.2 0.9 0
5.6 0.9 0
6 0.9 0
6.4 0.9 0
6.8 0.9 0
7.2 0.9 0
7.6 0.9 0
8 0.9 0
8.4 0.9 0
8.8 0.9 0
9.2 0.9 0
9.6 0.9 0
10 0.9 0
10.4 0.9 0
10.8 0.9 0
11.2 0.9 0
11.6 0.9 0
12 0.9 0
12.4 0.9 0
12.8 0.9 0
13.2 0.9 0
13.6 0.9 0
14 0.9 0
14.4 0.9 0
14.8 0.9 0
15.2 0.9 0
15.6 0.9 0
16 0.9 0
16.4 0.9 0
16.8 0.9 0
17.2 0.9 0
17.6 0.9 0
18 0.9 0
18.4 0.9 0
18.8 0.9 0
19.2 0.9 0
19.6 0.9 0
20 0.9 0
20.4 0.9 0
20.8 0.9 0
21.2 0.9 0
21.6 0.9 0
22 0.9 0
22.4 0.9 0
22.8 0.9 0
23.2 0.9 0
23.6 0.9 0
24 0.9 0
24.4 0.9 0
24.8 0.9 0
25.2 0.9 0
25.6 0.9 0
26 0.9 0
26.4 0.9 0
26.8 0.9 0
27.2 0.9 0
27.6 0.9 0
28 0.9 0
28.4 0.9 0
28.8 0.9 0
29.2 0.9 0
29.6 0.9 0
30 0.9 0
30.4 0.9 0
30.8 0.9 0
31.2 0.9 0
31.6 0.9 0
32 0.9 0
32.4 0.9 0
32.8 0.9 0
33.2 0.9 0
33.6 0.9 0
34 0.9 0
34.4 0.9 0
34.8 0.9 0
35.2 0.9 0
35.6 0.9 0
36 0.9 0
36.4 0.9 0
36.8 0.9 0
37.2 0.9 0
37.6 0.9 0
38 0.9 0
38.4 0.9 0
38.8 0.9 0
39.2 0.9 0
39.6 0.9 0
40 0.9 0
40.4 0.9 0
0 1 0
0.4 1 0
0.8 1 0
1.2 1 0
1.6 1 0
2 1 0
2.4 1 0
2.8 1 0
3.2 1 0
3.6 1 0
4 1 0
4.4 1 0
4.8 1 0
5.2 1 0
5.6 1 0
6 1 0
6.4 1 0
6.8 1 0
7.2 1 0
7.6 1 0
8 1 0
8.4 1 0
8.8 1 0
9.2 1 0
9.6 1 0
10 1 0
10.4 1 0
10.8 1 0
11.2 1 0
11.6 1 0
12 1 0
12.4 1 0
12.8 1 0
13.2 1 0
13.6 1 0
14 1 0
14.4 1 0
14.8 1 0
15.2 1 0
15.6 1 0
16 1 0
16.4 1 0
16.8 1 0
17.2 1 0
17.6 1 0
18 1 0
18.4 1 0
18.8 1 0
19.2 1 0
19.6 1 0
20 1 0
20.4 1 0
20.8 1 0
21.2 1 0
21.6 1 0
22 1 0
22.4 1 0
22.8 1 0
23.2 1 0
23.6 1 0
24 1 0
24.4 1 0
24.8 1 0
25.2 1 0
25.6 1 0
26 1 0
26.4 1 0
26.8 1 0
27.2 1 0
27.6 1 0
28 1 0
28.4 1 0
28.8 1 0
29.2 1 0
29.6 1 0
30 1 0
30.4 1 0
30.8 1 0
31.2 1 0
31.6 1 0
32 1 0
32.4 1 0
32.8 1 0
33.2 1 0
33.6 1 0
34 1 0
34.4 1 0
34.8 1 0
35.2 1 0
35.6 1 0
36 1 0
36.4 1 0
36.8 1 0
37.2 1 0
37.6 1 0
38 1 0
38.4 1 0
38.8 1 0
39.2 1 0
39.6 1 0
40 1 0
40.4 1 0
0 1.1 0
0.4 1.1 0
0.8 1.1 0
1.2 1.1 0
1.6 1.1 0
2 1.1 0
2.4 1.1 0
2.8 1.1 0
3.2 1.1 0
3.6 1.1 0
4 1.1 0
4.4 1.1 0
4.8 1.1 0
5.2 1.1 0
5.6 1.1 0
6 1.1 0
6.4 1.1 0
6.8 1.1 0
7.2 1.1 0
7.6 1.1 0
8 1.1 0
8.4 1.1 0
8.8 1.1 0
9.2 1.1 0
9.6 1.1 0
10 1.1 0
10.4 1.1 0
10.8 1.1 0
11.2 1.1 0
11.6 1.1 0
12 1.1 0
12.4 1.1 0
12.8 1.1 0
13.2 1.1 0
13.6 1.1 0
14 1.1 0
14.4 1.1 0
14.8 1.1 0
15.2 1.1 0
15.6 1.1 0
16 1.1 0
16.4 1.1 0
16.8 1.1 0
17.2 1.1 0
17.6 1.1 0
18 1.1 0
18.4 1.1 0
18.8 1.1 0
19.2 1.1 0
19.6 1.1 0
20 1.1 0
20.4 1.1 0
20.8 1.1 0
21.2 1.1 0
21.6 1.1 0
22 1.1 0
22.4 1.1 0
22.8 1.1 0
23.2 1.1 0
23.6 1.1 0
24 1.1 0
24.4 1.1 0
24.8 1.1 0
25.2 1.1 0
25.6 1.1 0
26 1.1 0
26.4 1.1 0
26.8 1.1 0
27.2 1.1 0
27.6 1.1 0
28 1.1 0
28.4 1.1 0
28.8 1.1 0
29.2 1.1 0
29.6 1.1 0
30 1.1 0
30.4 1.1 0
30.8 1.1 0
31.2 1.1 0
31.6 1.1 0
32 1.1 0
32.4 1.1 0
32.8 1.1 0
33.2 1.1 0
33.6 1.1 0
34 1.1 0
34.4 1.1 0
34.8 1.1 0
35.2 1.1 0
35.6 1.1 0
36 1.1 0
36.4 1.1 0
36.8 1.1 0
37.2 1.1 0
37.6 1.1 0
38 1.1 0
38.4 1.1 0
38.8 1.1 0
39.2 1.1 0
39.6 1.1 0
40 1.1 0
40.4 1.1 0

POINT_DATA 1224

SCALARS u double
LOOKUP_TABLE default
-1
-0.80718
-0.659028
-0.550106
-0.474364
-0.423306
-0.388994
-0.365552
-0.349164
-0.337516
-0.329219
-0.3234
-0.319453
-0.316914
-0.315399
-0.314594
-0.314247
-0.314172
-0.314236
-0.314358
-0.314489
-0.314606
-0.3147
-0.31477
-0.314819
-0.314852
-0.314873
-0.314887
-0.314895
-0.314899
-0.314902
-0.314903
-0.314904
-0.314904
-0.314904
-0.314904
-0.314904
-0.314904
-0.314903
-0.314903
-0.314903
-0.314903
-0.314903
-0.314903
-0.314903
-0.314903
-0.314903
-0.314903
-0.314903
-0.314903
-0.314903
-0.314903
-0.314903
-0.314903
-0.314903
-0.314903
-0.314903
-0.314903
-0.314903
-0.314903
-0.314903
-0.314903
-0.314903
-0.314902
-0.314902
-0.314902
-0.314902
-0.314902
-0.314902
-0.314902
-0.314902
-0.314902
-0.314902
-0.314902
-0.314902
-0.314902
-0.314902
-0.314902
-0.314902
-0.314902
-0.314902
-0.314902
-0.314902
-0.314902
-0.314902
-0.314902
-0.314902
-0.314902
-0.314902
-0.314902
-0.314902
-0.314904
-0.314911
-0.314932
-0.315047
-0.315347
-0.317046
-0.321301
-0.347174
-0.382424
-1
-0.382424
1
0.80718
0.659028
0.550106
0.474365
0.423307
0.388993
0.365547
0.349151
0.337491
0.329178
0.323341
0.319377
0.316822
0.315294
0.31448
0.314128
0.314049
0.314113
0.314236
0.314368
0.314487
0.314582
0.314652
0.314702
0.314736
0.314758
0.314772
0.31478
0.314785
0.314788
0.314789
0.31479
0.31479
0.31479
0.31479
0.31479
0.314789
0.314789
0.314789
0.314789
0.314789
0.314789
0.314789
0.314789
0.314789
0.314789
0.314789
0.314789
0.314789
0.314789
0.314789
0.314789
0.314789
0.314789
0.314789
0.314789
0.314789
0.314789
0.314789
0.314788
0.314788
0.314788
0.314788
0.314788
0.314788
0.314788
0.314788
0.314788
0.314788
0.314788
0.314788
0.314788
0.314788
0.314788
0.314788
0.314788
0.314788
0.314788
0.314788
0.314788
0.314788
0.314788
0.314788
0.314788
0.314788
0.314787
0.314787
0.314787
0.314788
0.314788
0.314789
0.314797
0.314818
0.314933
0.315233
0.316933
0.321191
0.347071
0.382363
1
0.382424
1
1.02373
1.02809
1.01224
0.983945
0.950679
0.917672
0.887907
0.862742
0.842544
0.827122
0.815968
0.808392
0.803633
0.800943
0.799662
0.799258
0.799339
0.79964
0.800002
0.800342
0.800624
0.80084
0.800995
0.801102
0.801173
0.801218
0.801245
0.801262
0.801271
0.801276
0.801279
0.80128
0.80128
0.80128
0.80128
0.80128
0.801279
0.801279
0.801279
0.801279
0.801279
0.801279
0.801279
0.801279
0.801279
0.801279
0.801279
0.801279
0.801279
0.801279
0.801279
0.801279
0.801279
0.801279
0.801279
0.801279
0.801279
0.801279
0.801278
0.801278
0.801278
0.801278
0.801278
0.801278
0.801278
0.801278
0.801278
0.801277
0.801277
0.801277
0.801277
0.801277
0.801277
0.801277
0.801276
0.801276
0.801276
0.801276
0.801276
0.801276
0.801275
0.801275
0.801275
0.801275
0.801275
0.801274
0.801274
0.801274
0.801274
0.801274
0.801274
0.801277
0.801284
0.801327
0.801415
0.802138
0.803151
0.8144
0.832931
1
0.833142
1
1.04017
1.08473
1.11989
1.14301
1.1554
1.15971
1.15868
1.15457
1.14911
1.14352
1.13857
1.1347
1.132
1.13039
1.12962
1.12945
1.12963
1.12997
1.13034
1.13069
1.13097
1.13118
1.13134
1.13145
1.13152
1.13157
1.13159
1.13161
1.13162
1.13163
1.13163
1.13163
1.13163
1.13163
1.13163
1.13163
1.13163
1.13163
1.13163
1.13163
1.13163
1.13163
1.13163
1.13163
1.13163
1.13163
1.13163
1.13163
1.13163
1.13163
1.13163
1.13163
1.13163
1.13163
1.13163
1.13163
1.13163
1.13163
1.13163
1.13163
1.13163
1.13163
1.13163
1.13163
1.13163
1.13163
1.13163
1.13163
1.13163
1.13163
1.13163
1.13163
1.13163
1.13163
1.13163
1.13163
1.13163
1.13163
1.13163
1.13163
1.13163
1.13163
1.13163
1.13163
1.13163
1.13163
1.13163
1.13163
1.13163
1.13163
1.13163
1.13162
1.13162
1.1316
1.13159
1.13124
1.13106
1.12559
1.13133
1
1.13146
1
1.03766
1.08576
1.13255
1.17421
1.20956
1.23864
1.26203
1.28042
1.29453
1.30499
1.31243
1.31745
1.3206
1.32243
1.32335
1.32372
1.32379
1.32371
1.32357
1.32343
1.32331
1.32322
1.32316
1.32311
1.32308
1.32306
1.32305
1.32305
1.32304
1.32304
1.32304
1.32304
1.32304
1.32304
1.32304
1.32304
1.32304
1.32304
1.32304
1.32304
1.32304
1.32304
1.32304
1.32304
1.32304
1.32304
1.32304
1.32304
1.32304
1.32304
1.32304
1.32304
1.32304
1.32304
1.32304
1.32304
1.32304
1.32304
1.32304
1.32304
1.32304
1.32304
1.32304
1.32304
1.32304
1.32304
1.32304
1.32304
1.32304
1.32304
1.32304
1.32304
1.32304
1.32304
1.32304
1.32304
1.32304
1.32304
1.32304
1.32304
1.32304
1.32304
1.32304
1.32304
1.32304
1.32304
1.32304
1.32304
1.32304
1.32304
1.32303
1.32303
1.32302
1.32296
1.3229
1.32197
1.32118
1.3062
1.30374
1
1.30362
1
1.03576
1.08266
1.1305
1.17619
1.21854
1.25702
1.29137
1.32135
1.34676
1.36746
1.38352
1.39522
1.4031
1.40788
1.41034
1.41122
1.41116
1.41062
1.40992
1.40924
1.40865
1.40819
1.40785
1.40761
1.40745
1.40735
1.40728
1.40724
1.40722
1.40721
1.4072
1.4072
1.4072
1.40719
1.4072
1.4072
1.4072
1.4072
1.4072
1.4072
1.4072
1.4072
1.4072
1.4072
1.4072
1.4072
1.4072
1.4072
1.4072
1.4072
1.4072
1.4072
1.4072
1.4072
1.4072
1.4072
1.4072
1.4072
1.4072
1.4072
1.4072
1.4072
1.4072
1.4072
1.4072
1.4072
1.4072
1.4072
1.4072
1.4072
1.4072
1.4072
1.4072
1.4072
1.4072
1.4072
1.4072
1.4072
1.4072
1.4072
1.40719
1.40719
1.40719
1.40719
1.40719
1.40719
1.40719
1.40719
1.40719
1.40719
1.40719
1.40719
1.40717
1.40712
1.40696
1.40593
1.40439
1.38624
1.3763
1
1.37597
1
1.03576
1.08266
1.1305
1.17619
1.21854
1.25702
1.29137
1.32135
1.34676
1.36747
1.38352
1.39522
1.4031
1.40788
1.41034
1.41122
1.41116
1.41062
1.40992
1.40923
1.40865
1.40819
1.40785
1.40761
1.40745
1.40735
1.40728
1.40724
1.40722
1.4072
1.4072
1.4072
1.40719
1.40719
1.40719
1.40719
1.40719
1.4072
1.4072
1.4072
1.4072
1.4072
1.4072
1.4072
1.4072
1.4072
1.4072
1.4072
1.4072
1.4072
1.4072
1.4072
1.4072
1.4072
1.4072
1.4072
1.4072
1.4072
1.4072
1.4072
1.4072
1.4072
1.4072
1.4072
1.4072
1.4072
1.4072
1.4072
1.4072
1.4072
1.4072
1.4072
1.4072
1.4072
1.4072
1.4072
1.4072
1.4072
1.4072
1.4072
1.4072
1.4072
1.4072
1.40719
1.40719
1.40719
1.40719
1.40719
1.40719
1.40719
1.40719
1.40719
1.40717
1.40712
1.40696
1.40593
1.40439
1.38624
1.3763
1
1.37597
1
1.03766
1.08576
1.13255
1.17421
1.20956
1.23864
1.26203
1.28042
1.29453
1.305
1.31244
1.31745
1.32061
1.32243
1.32335
1.32372
1.32379
1.3237
1.32357
1.32343
1.32331
1.32322
1.32315
1.32311
1.32308
1.32306
1.32305
1.32304
1.32304
1.32304
1.32304
1.32304
1.32304
1.32304
1.32304
1.32304
1.32304
1.32304
1.32304
1.32304
1.32304
1.32304
1.32304
1.32304
1.32304
1.32304
1.32304
1.32304
1.32304
1.32304
1.32304
1.32304
1.32304
1.32304
1.32304
1.32304
1.32304
1.32304
1.32304
1.32304
1.32304
1.32304
1.32304
1.32304
1.32304
1.32304
1.32304
1.32304
1.32304
1.32304
1.32304
1.32304
1.32304
1.32304
1.32304
1.32304
1.32304
1.32304
1.32304
1.32304
1.32304
1.32304
1.32304
1.32304
1.32304
1.32304
1.32304
1.32304
1.32304
1.32304
1.32304
1.32303
1.32303
1.32297
1.3229
1.32197
1.32119
1.30621
1.30374
1
1.30362
1
1.04017
1.08473
1.11989
1.14301
1.1554
1.15972
1.15868
1.15457
1.14911
1.14352
1.13858
1.1347
1.13201
1.13039
1.12962
1.12945
1.12963
1.12996
1.13034
1.13068
1.13096
1.13118
1.13133
1.13144
1.13151
1.13156
1.13159
1.13161
1.13162
1.13162
1.13163
1.13163
1.13163
1.13163
1.13163
1.13163
1.13163
1.13163
1.13163
1.13163
1.13163
1.13163
1.13163
1.13163
1.13163
1.13163
1.13163
1.13163
1.13163
1.13163
1.13163
1.13163
1.13163
1.13163
1.13163
1.13163
1.13163
1.13163
1.13163
1.13163
1.13163
1.13163
1.13163
1.13163
1.13163
1.13163
1.13163
1.13163
1.13163
1.13163
1.13163
1.13163
1.13163
1.13163
1.13163
1.13163
1.13163
1.13163
1.13163
1.13163
1.13163
1.13163
1.13163
1.13163
1.13163
1.13163
1.13163
1.13163
1.13163
1.13163
1.13163
1.13163
1.13163
1.1316
1.13159
1.13125
1.13106
1.12559
1.13133
1
1.13147
1
1.02373
1.02809
1.01224
0.983945
0.95068
0.917673
0.88791
0.862746
0.842549
0.827128
0.815974
0.808398
0.803637
0.800946
0.799664
0.799258
0.799338
0.799638
0.8
0.800339
0.800621
0.800837
0.800992
0.801099
0.80117
0.801215
0.801243
0.80126
0.801269
0.801274
0.801276
0.801277
0.801278
0.801278
0.801278
0.801277
0.801277
0.801277
0.801277
0.801277
0.801277
0.801277
0.801277
0.801277
0.801277
0.801277
0.801277
0.801277
0.801277
0.801277
0.801277
0.801277
0.801277
0.801277
0.801277
0.801277
0.801277
0.801277
0.801277
0.801277
0.801277
0.801277
0.801277
0.801277
0.801277
0.801277
0.801277
0.801277
0.801276
0.801276
0.801276
0.801276
0.801276
0.801276
0.801276
0.801276
0.801276
0.801276
0.801275
0.801275
0.801275
0.801275
0.801275
0.801275
0.801275
0.801275
0.801274
0.801274
0.801274
0.801274
0.801275
0.801277
0.801284
0.801328
0.801415
0.802138
0.803151
0.8144
0.83293
1
0.833141
1
0.80718
0.659028
0.550106
0.474365
0.423307
0.388994
0.365548
0.349153
0.337493
0.32918
0.323343
0.319379
0.316823
0.315295
0.31448
0.314128
0.314049
0.314113
0.314235
0.314367
0.314486
0.314581
0.314652
0.314702
0.314735
0.314758
0.314771
0.31478
0.314784
0.314787
0.314788
0.314789
0.314789
0.314789
0.314789
0.314789
0.314789
0.314789
0.314789
0.314789
0.314789
0.314789
0.314789
0.314789
0.314788
0.314788
0.314788
0.314788
0.314788
0.314788
0.314788
0.314788
0.314788
0.314788
0.314788
0.314788
0.314788
0.314788
0.314788
0.314788
0.314788
0.314788
0.314788
0.314788
0.314788
0.314788
0.314788
0.314788
0.314788
0.314788
0.314788
0.314788
0.314787
0.314787
0.314787
0.314787
0.314787
0.314787
0.314787
0.314787
0.314787
0.314787
0.314787
0.314787
0.314787
0.314787
0.314787
0.314787
0.314787
0.314788
0.314789
0.314796
0.314818
0.314932
0.315232
0.316932
0.32119
0.34707
0.382362
1
0.382423
-1
-0.80718
-0.659028
-0.550106
-0.474365
-0.423307
-0.388995
-0.365553
-0.349166
-0.337519
-0.329221
-0.323402
-0.319455
-0.316915
-0.3154
-0.314594
-0.314247
-0.314171
-0.314236
-0.314357
-0.314489
-0.314606
-0.314699
-0.314769
-0.314818
-0.314851
-0.314873
-0.314886
-0.314894
-0.314899
-0.314901
-0.314903
-0.314903
-0.314903
-0.314903
-0.314903
-0.314903
-0.314903
-0.314903
-0.314903
-0.314903
-0.314903
-0.314903
-0.314903
-0.314903
-0.314903
-0.314903
-0.314903
-0.314902
-0.314902
-0.314902
-0.314902
-0.314902
-0.314902
-0.314902
-0.314902
-0.314902
-0.314902
-0.314902
-0.314902
-0.314902
-0.314902
-0.314902
-0.314902
-0.314902
-0.314902
-0.314902
-0.314902
-0.314902
-0.314902
-0.314902
-0.314902
-0.314902
-0.314902
-0.314902
-0.314901
-0.314901
-0.314901
-0.314901
-0.314901
-0.314901
-0.314901
-0.314901
-0.314901
-0.314901
-0.314901
-0.314901
-0.314901
-0.314901
-0.314901
-0.314902
-0.314903
-0.31491
-0.314932
-0.315046
-0.315346
-0.317045
-0.3213
-0.347173
-0.382423
-1
-0.382423
