# vtk DataFile Version 2.0
FlowField
ASCII
DATASET STRUCTURED_GRID
DIMENSIONS 101 11 1 
POINTS 1111 double
0 0 0
0.3 0 0
0.6 0 0
0.9 0 0
1.2 0 0
1.5 0 0
1.8 0 0
2.1 0 0
2.4 0 0
2.7 0 0
3 0 0
3.3 0 0
3.6 0 0
3.9 0 0
4.2 0 0
4.5 0 0
4.8 0 0
5.1 0 0
5.4 0 0
5.7 0 0
6 0 0
6.3 0 0
6.6 0 0
6.9 0 0
7.2 0 0
7.5 0 0
7.8 0 0
8.1 0 0
8.4 0 0
8.7 0 0
9 0 0
9.3 0 0
9.6 0 0
9.9 0 0
10.2 0 0
10.5 0 0
10.8 0 0
11.1 0 0
11.4 0 0
11.7 0 0
12 0 0
12.3 0 0
12.6 0 0
12.9 0 0
13.2 0 0
13.5 0 0
13.8 0 0
14.1 0 0
14.4 0 0
14.7 0 0
15 0 0
15.3 0 0
15.6 0 0
15.9 0 0
16.2 0 0
16.5 0 0
16.8 0 0
17.1 0 0
17.4 0 0
17.7 0 0
18 0 0
18.3 0 0
18.6 0 0
18.9 0 0
19.2 0 0
19.5 0 0
19.8 0 0
20.1 0 0
20.4 0 0
20.7 0 0
21 0 0
21.3 0 0
21.6 0 0
21.9 0 0
22.2 0 0
22.5 0 0
22.8 0 0
23.1 0 0
23.4 0 0
23.7 0 0
24 0 0
24.3 0 0
24.6 0 0
24.9 0 0
25.2 0 0
25.5 0 0
25.8 0 0
26.1 0 0
26.4 0 0
26.7 0 0
27 0 0
27.3 0 0
27.6 0 0
27.9 0 0
28.2 0 0
28.5 0 0
28.8 0 0
29.1 0 0
29.4 0 0
29.7 0 0
30 0 0
0 0.1 0
0.3 0.1 0
0.6 0.1 0
0.9 0.1 0
1.2 0.1 0
1.5 0.1 0
1.8 0.1 0
2.1 0.1 0
2.4 0.1 0
2.7 0.1 0
3 0.1 0
3.3 0.1 0
3.6 0.1 0
3.9 0.1 0
4.2 0.1 0
4.5 0.1 0
4.8 0.1 0
5.1 0.1 0
5.4 0.1 0
5.7 0.1 0
6 0.1 0
6.3 0.1 0
6.6 0.1 0
6.9 0.1 0
7.2 0.1 0
7.5 0.1 0
7.8 0.1 0
8.1 0.1 0
8.4 0.1 0
8.7 0.1 0
9 0.1 0
9.3 0.1 0
9.6 0.1 0
9.9 0.1 0
10.2 0.1 0
10.5 0.1 0
10.8 0.1 0
11.1 0.1 0
11.4 0.1 0
11.7 0.1 0
12 0.1 0
12.3 0.1 0
12.6 0.1 0
12.9 0.1 0
13.2 0.1 0
13.5 0.1 0
13.8 0.1 0
14.1 0.1 0
14.4 0.1 0
14.7 0.1 0
15 0.1 0
15.3 0.1 0
15.6 0.1 0
15.9 0.1 0
16.2 0.1 0
16.5 0.1 0
16.8 0.1 0
17.1 0.1 0
17.4 0.1 0
17.7 0.1 0
18 0.1 0
18.3 0.1 0
18.6 0.1 0
18.9 0.1 0
19.2 0.1 0
19.5 0.1 0
19.8 0.1 0
20.1 0.1 0
20.4 0.1 0
20.7 0.1 0
21 0.1 0
21.3 0.1 0
21.6 0.1 0
21.9 0.1 0
22.2 0.1 0
22.5 0.1 0
22.8 0.1 0
23.1 0.1 0
23.4 0.1 0
23.7 0.1 0
24 0.1 0
24.3 0.1 0
24.6 0.1 0
24.9 0.1 0
25.2 0.1 0
25.5 0.1 0
25.8 0.1 0
26.1 0.1 0
26.4 0.1 0
26.7 0.1 0
27 0.1 0
27.3 0.1 0
27.6 0.1 0
27.9 0.1 0
28.2 0.1 0
28.5 0.1 0
28.8 0.1 0
29.1 0.1 0
29.4 0.1 0
29.7 0.1 0
30 0.1 0
0 0.2 0
0.3 0.2 0
0.6 0.2 0
0.9 0.2 0
1.2 0.2 0
1.5 0.2 0
1.8 0.2 0
2.1 0.2 0
2.4 0.2 0
2.7 0.2 0
3 0.2 0
3.3 0.2 0
3.6 0.2 0
3.9 0.2 0
4.2 0.2 0
4.5 0.2 0
4.8 0.2 0
5.1 0.2 0
5.4 0.2 0
5.7 0.2 0
6 0.2 0
6.3 0.2 0
6.6 0.2 0
6.9 0.2 0
7.2 0.2 0
7.5 0.2 0
7.8 0.2 0
8.1 0.2 0
8.4 0.2 0
8.7 0.2 0
9 0.2 0
9.3 0.2 0
9.6 0.2 0
9.9 0.2 0
10.2 0.2 0
10.5 0.2 0
10.8 0.2 0
11.1 0.2 0
11.4 0.2 0
11.7 0.2 0
12 0.2 0
12.3 0.2 0
12.6 0.2 0
12.9 0.2 0
13.2 0.2 0
13.5 0.2 0
13.8 0.2 0
14.1 0.2 0
14.4 0.2 0
14.7 0.2 0
15 0.2 0
15.3 0.2 0
15.6 0.2 0
15.9 0.2 0
16.2 0.2 0
16.5 0.2 0
16.8 0.2 0
17.1 0.2 0
17.4 0.2 0
17.7 0.2 0
18 0.2 0
18.3 0.2 0
18.6 0.2 0
18.9 0.2 0
19.2 0.2 0
19.5 0.2 0
19.8 0.2 0
20.1 0.2 0
20.4 0.2 0
20.7 0.2 0
21 0.2 0
21.3 0.2 0
21.6 0.2 0
21.9 0.2 0
22.2 0.2 0
22.5 0.2 0
22.8 0.2 0
23.1 0.2 0
23.4 0.2 0
23.7 0.2 0
24 0.2 0
24.3 0.2 0
24.6 0.2 0
24.9 0.2 0
25.2 0.2 0
25.5 0.2 0
25.8 0.2 0
26.1 0.2 0
26.4 0.2 0
26.7 0.2 0
27 0.2 0
27.3 0.2 0
27.6 0.2 0
27.9 0.2 0
28.2 0.2 0
28.5 0.2 0
28.8 0.2 0
29.1 0.2 0
29.4 0.2 0
29.7 0.2 0
30 0.2 0
0 0.3 0
0.3 0.3 0
0.6 0.3 0
0.9 0.3 0
1.2 0.3 0
1.5 0.3 0
1.8 0.3 0
2.1 0.3 0
2.4 0.3 0
2.7 0.3 0
3 0.3 0
3.3 0.3 0
3.6 0.3 0
3.9 0.3 0
4.2 0.3 0
4.5 0.3 0
4.8 0.3 0
5.1 0.3 0
5.4 0.3 0
5.7 0.3 0
6 0.3 0
6.3 0.3 0
6.6 0.3 0
6.9 0.3 0
7.2 0.3 0
7.5 0.3 0
7.8 0.3 0
8.1 0.3 0
8.4 0.3 0
8.7 0.3 0
9 0.3 0
9.3 0.3 0
9.6 0.3 0
9.9 0.3 0
10.2 0.3 0
10.5 0.3 0
10.8 0.3 0
11.1 0.3 0
11.4 0.3 0
11.7 0.3 0
12 0.3 0
12.3 0.3 0
12.6 0.3 0
12.9 0.3 0
13.2 0.3 0
13.5 0.3 0
13.8 0.3 0
14.1 0.3 0
14.4 0.3 0
14.7 0.3 0
15 0.3 0
15.3 0.3 0
15.6 0.3 0
15.9 0.3 0
16.2 0.3 0
16.5 0.3 0
16.8 0.3 0
17.1 0.3 0
17.4 0.3 0
17.7 0.3 0
18 0.3 0
18.3 0.3 0
18.6 0.3 0
18.9 0.3 0
19.2 0.3 0
19.5 0.3 0
19.8 0.3 0
20.1 0.3 0
20.4 0.3 0
20.7 0.3 0
21 0.3 0
21.3 0.3 0
21.6 0.3 0
21.9 0.3 0
22.2 0.3 0
22.5 0.3 0
22.8 0.3 0
23.1 0.3 0
23.4 0.3 0
23.7 0.3 0
24 0.3 0
24.3 0.3 0
24.6 0.3 0
24.9 0.3 0
25.2 0.3 0
25.5 0.3 0
25.8 0.3 0
26.1 0.3 0
26.4 0.3 0
26.7 0.3 0
27 0.3 0
27.3 0.3 0
27.6 0.3 0
27.9 0.3 0
28.2 0.3 0
28.5 0.3 0
28.8 0.3 0
29.1 0.3 0
29.4 0.3 0
29.7 0.3 0
30 0.3 0
0 0.4 0
0.3 0.4 0
0.6 0.4 0
0.9 0.4 0
1.2 0.4 0
1.5 0.4 0
1.8 0.4 0
2.1 0.4 0
2.4 0.4 0
2.7 0.4 0
3 0.4 0
3.3 0.4 0
3.6 0.4 0
3.9 0.4 0
4.2 0.4 0
4.5 0.4 0
4.8 0.4 0
5.1 0.4 0
5.4 0.4 0
5.7 0.4 0
6 0.4 0
6.3 0.4 0
6.6 0.4 0
6.9 0.4 0
7.2 0.4 0
7.5 0.4 0
7.8 0.4 0
8.1 0.4 0
8.4 0.4 0
8.7 0.4 0
9 0.4 0
9.3 0.4 0
9.6 0.4 0
9.9 0.4 0
10.2 0.4 0
10.5 0.4 0
10.8 0.4 0
11.1 0.4 0
11.4 0.4 0
11.7 0.4 0
12 0.4 0
12.3 0.4 0
12.6 0.4 0
12.9 0.4 0
13.2 0.4 0
13.5 0.4 0
13.8 0.4 0
14.1 0.4 0
14.4 0.4 0
14.7 0.4 0
15 0.4 0
15.3 0.4 0
15.6 0.4 0
15.9 0.4 0
16.2 0.4 0
16.5 0.4 0
16.8 0.4 0
17.1 0.4 0
17.4 0.4 0
17.7 0.4 0
18 0.4 0
18.3 0.4 0
18.6 0.4 0
18.9 0.4 0
19.2 0.4 0
19.5 0.4 0
19.8 0.4 0
20.1 0.4 0
20.4 0.4 0
20.7 0.4 0
21 0.4 0
21.3 0.4 0
21.6 0.4 0
21.9 0.4 0
22.2 0.4 0
22.5 0.4 0
22.8 0.4 0
23.1 0.4 0
23.4 0.4 0
23.7 0.4 0
24 0.4 0
24.3 0.4 0
24.6 0.4 0
24.9 0.4 0
25.2 0.4 0
25.5 0.4 0
25.8 0.4 0
26.1 0.4 0
26.4 0.4 0
26.7 0.4 0
27 0.4 0
27.3 0.4 0
27.6 0.4 0
27.9 0.4 0
28.2 0.4 0
28.5 0.4 0
28.8 0.4 0
29.1 0.4 0
29.4 0.4 0
29.7 0.4 0
30 0.4 0
0 0.5 0
0.3 0.5 0
0.6 0.5 0
0.9 0.5 0
1.2 0.5 0
1.5 0.5 0
1.8 0.5 0
2.1 0.5 0
2.4 0.5 0
2.7 0.5 0
3 0.5 0
3.3 0.5 0
3.6 0.5 0
3.9 0.5 0
4.2 0.5 0
4.5 0.5 0
4.8 0.5 0
5.1 0.5 0
5.4 0.5 0
5.7 0.5 0
6 0.5 0
6.3 0.5 0
6.6 0.5 0
6.9 0.5 0
7.2 0.5 0
7.5 0.5 0
7.8 0.5 0
8.1 0.5 0
8.4 0.5 0
8.7 0.5 0
9 0.5 0
9.3 0.5 0
9.6 0.5 0
9.9 0.5 0
10.2 0.5 0
10.5 0.5 0
10.8 0.5 0
11.1 0.5 0
11.4 0.5 0
11.7 0.5 0
12 0.5 0
12.3 0.5 0
12.6 0.5 0
12.9 0.5 0
13.2 0.5 0
13.5 0.5 0
13.8 0.5 0
14.1 0.5 0
14.4 0.5 0
14.7 0.5 0
15 0.5 0
15.3 0.5 0
15.6 0.5 0
15.9 0.5 0
16.2 0.5 0
16.5 0.5 0
16.8 0.5 0
17.1 0.5 0
17.4 0.5 0
17.7 0.5 0
18 0.5 0
18.3 0.5 0
18.6 0.5 0
18.9 0.5 0
19.2 0.5 0
19.5 0.5 0
19.8 0.5 0
20.1 0.5 0
20.4 0.5 0
20.7 0.5 0
21 0.5 0
21.3 0.5 0
21.6 0.5 0
21.9 0.5 0
22.2 0.5 0
22.5 0.5 0
22.8 0.5 0
23.1 0.5 0
23.4 0.5 0
23.7 0.5 0
24 0.5 0
24.3 0.5 0
24.6 0.5 0
24.9 0.5 0
25.2 0.5 0
25.5 0.5 0
25.8 0.5 0
26.1 0.5 0
26.4 0.5 0
26.7 0.5 0
27 0.5 0
27.3 0.5 0
27.6 0.5 0
27.9 0.5 0
28.2 0.5 0
28.5 0.5 0
28.8 0.5 0
29.1 0.5 0
29.4 0.5 0
29.7 0.5 0
30 0.5 0
0 0.6 0
0.3 0.6 0
0.6 0.6 0
0.9 0.6 0
1.2 0.6 0
1.5 0.6 0
1.8 0.6 0
2.1 0.6 0
2.4 0.6 0
2.7 0.6 0
3 0.6 0
3.3 0.6 0
3.6 0.6 0
3.9 0.6 0
4.2 0.6 0
4.5 0.6 0
4.8 0.6 0
5.1 0.6 0
5.4 0.6 0
5.7 0.6 0
6 0.6 0
6.3 0.6 0
6.6 0.6 0
6.9 0.6 0
7.2 0.6 0
7.5 0.6 0
7.8 0.6 0
8.1 0.6 0
8.4 0.6 0
8.7 0.6 0
9 0.6 0
9.3 0.6 0
9.6 0.6 0
9.9 0.6 0
10.2 0.6 0
10.5 0.6 0
10.8 0.6 0
11.1 0.6 0
11.4 0.6 0
11.7 0.6 0
12 0.6 0
12.3 0.6 0
12.6 0.6 0
12.9 0.6 0
13.2 0.6 0
13.5 0.6 0
13.8 0.6 0
14.1 0.6 0
14.4 0.6 0
14.7 0.6 0
15 0.6 0
15.3 0.6 0
15.6 0.6 0
15.9 0.6 0
16.2 0.6 0
16.5 0.6 0
16.8 0.6 0
17.1 0.6 0
17.4 0.6 0
17.7 0.6 0
18 0.6 0
18.3 0.6 0
18.6 0.6 0
18.9 0.6 0
19.2 0.6 0
19.5 0.6 0
19.8 0.6 0
20.1 0.6 0
20.4 0.6 0
20.7 0.6 0
21 0.6 0
21.3 0.6 0
21.6 0.6 0
21.9 0.6 0
22.2 0.6 0
22.5 0.6 0
22.8 0.6 0
23.1 0.6 0
23.4 0.6 0
23.7 0.6 0
24 0.6 0
24.3 0.6 0
24.6 0.6 0
24.9 0.6 0
25.2 0.6 0
25.5 0.6 0
25.8 0.6 0
26.1 0.6 0
26.4 0.6 0
26.7 0.6 0
27 0.6 0
27.3 0.6 0
27.6 0.6 0
27.9 0.6 0
28.2 0.6 0
28.5 0.6 0
28.8 0.6 0
29.1 0.6 0
29.4 0.6 0
29.7 0.6 0
30 0.6 0
0 0.7 0
0.3 0.7 0
0.6 0.7 0
0.9 0.7 0
1.2 0.7 0
1.5 0.7 0
1.8 0.7 0
2.1 0.7 0
2.4 0.7 0
2.7 0.7 0
3 0.7 0
3.3 0.7 0
3.6 0.7 0
3.9 0.7 0
4.2 0.7 0
4.5 0.7 0
4.8 0.7 0
5.1 0.7 0
5.4 0.7 0
5.7 0.7 0
6 0.7 0
6.3 0.7 0
6.6 0.7 0
6.9 0.7 0
7.2 0.7 0
7.5 0.7 0
7.8 0.7 0
8.1 0.7 0
8.4 0.7 0
8.7 0.7 0
9 0.7 0
9.3 0.7 0
9.6 0.7 0
9.9 0.7 0
10.2 0.7 0
10.5 0.7 0
10.8 0.7 0
11.1 0.7 0
11.4 0.7 0
11.7 0.7 0
12 0.7 0
12.3 0.7 0
12.6 0.7 0
12.9 0.7 0
13.2 0.7 0
13.5 0.7 0
13.8 0.7 0
14.1 0.7 0
14.4 0.7 0
14.7 0.7 0
15 0.7 0
15.3 0.7 0
15.6 0.7 0
15.9 0.7 0
16.2 0.7 0
16.5 0.7 0
16.8 0.7 0
17.1 0.7 0
17.4 0.7 0
17.7 0.7 0
18 0.7 0
18.3 0.7 0
18.6 0.7 0
18.9 0.7 0
19.2 0.7 0
19.5 0.7 0
19.8 0.7 0
20.1 0.7 0
20.4 0.7 0
20.7 0.7 0
21 0.7 0
21.3 0.7 0
21.6 0.7 0
21.9 0.7 0
22.2 0.7 0
22.5 0.7 0
22.8 0.7 0
23.1 0.7 0
23.4 0.7 0
23.7 0.7 0
24 0.7 0
24.3 0.7 0
24.6 0.7 0
24.9 0.7 0
25.2 0.7 0
25.5 0.7 0
25.8 0.7 0
26.1 0.7 0
26.4 0.7 0
26.7 0.7 0
27 0.7 0
27.3 0.7 0
27.6 0.7 0
27.9 0.7 0
28.2 0.7 0
28.5 0.7 0
28.8 0.7 0
29.1 0.7 0
29.4 0.7 0
29.7 0.7 0
30 0.7 0
0 0.8 0
0.3 0.8 0
0.6 0.8 0
0.9 0.8 0
1.2 0.8 0
1.5 0.8 0
1.8 0.8 0
2.1 0.8 0
2.4 0.8 0
2.7 0.8 0
3 0.8 0
3.3 0.8 0
3.6 0.8 0
3.9 0.8 0
4.2 0.8 0
4.5 0.8 0
4.8 0.8 0
5.1 0.8 0
5.4 0.8 0
5.7 0.8 0
6 0.8 0
6.3 0.8 0
6.6 0.8 0
6.9 0.8 0
7.2 0.8 0
7.5 0.8 0
7.8 0.8 0
8.1 0.8 0
8.4 0.8 0
8.7 0.8 0
9 0.8 0
9.3 0.8 0
9.6 0.8 0
9.9 0.8 0
10.2 0.8 0
10.5 0.8 0
10.8 0.8 0
11.1 0.8 0
11.4 0.8 0
11.7 0.8 0
12 0.8 0
12.3 0.8 0
12.6 0.8 0
12.9 0.8 0
13.2 0.8 0
13.5 0.8 0
13.8 0.8 0
14.1 0.8 0
14.4 0.8 0
14.7 0.8 0
15 0.8 0
15.3 0.8 0
15.6 0.8 0
15.9 0.8 0
16.2 0.8 0
16.5 0.8 0
16.8 0.8 0
17.1 0.8 0
17.4 0.8 0
17.7 0.8 0
18 0.8 0
18.3 0.8 0
18.6 0.8 0
18.9 0.8 0
19.2 0.8 0
19.5 0.8 0
19.8 0.8 0
20.1 0.8 0
20.4 0.8 0
20.7 0.8 0
21 0.8 0
21.3 0.8 0
21.6 0.8 0
21.9 0.8 0
22.2 0.8 0
22.5 0.8 0
22.8 0.8 0
23.1 0.8 0
23.4 0.8 0
23.7 0.8 0
24 0.8 0
24.3 0.8 0
24.6 0.8 0
24.9 0.8 0
25.2 0.8 0
25.5 0.8 0
25.8 0.8 0
26.1 0.8 0
26.4 0.8 0
26.7 0.8 0
27 0.8 0
27.3 0.8 0
27.6 0.8 0
27.9 0.8 0
28.2 0.8 0
28.5 0.8 0
28.8 0.8 0
29.1 0.8 0
29.4 0.8 0
29.7 0.8 0
30 0.8 0
0 0.9 0
0.3 0.9 0
0.6 0.9 0
0.9 0.9 0
1.2 0.9 0
1.5 0.9 0
1.8 0.9 0
2.1 0.9 0
2.4 0.9 0
2.7 0.9 0
3 0.9 0
3.3 0.9 0
3.6 0.9 0
3.9 0.9 0
4.2 0.9 0
4.5 0.9 0
4.8 0.9 0
5.1 0.9 0
5.4 0.9 0
5.7 0.9 0
6 0.9 0
6.3 0.9 0
6.6 0.9 0
6.9 0.9 0
7.2 0.9 0
7.5 0.9 0
7.8 0.9 0
8.1 0.9 0
8.4 0.9 0
8.7 0.9 0
9 0.9 0
9.3 0.9 0
9.6 0.9 0
9.9 0.9 0
10.2 0.9 0
10.5 0.9 0
10.8 0.9 0
11.1 0.9 0
11.4 0.9 0
11.7 0.9 0
12 0.9 0
12.3 0.9 0
12.6 0.9 0
12.9 0.9 0
13.2 0.9 0
13.5 0.9 0
13.8 0.9 0
14.1 0.9 0
14.4 0.9 0
14.7 0.9 0
15 0.9 0
15.3 0.9 0
15.6 0.9 0
15.9 0.9 0
16.2 0.9 0
16.5 0.9 0
16.8 0.9 0
17.1 0.9 0
17.4 0.9 0
17.7 0.9 0
18 0.9 0
18.3 0.9 0
18.6 0.9 0
18.9 0.9 0
19.2 0.9 0
19.5 0.9 0
19.8 0.9 0
20.1 0.9 0
20.4 0.9 0
20.7 0.9 0
21 0.9 0
21.3 0.9 0
21.6 0.9 0
21.9 0.9 0
22.2 0.9 0
22.5 0.9 0
22.8 0.9 0
23.1 0.9 0
23.4 0.9 0
23.7 0.9 0
24 0.9 0
24.3 0.9 0
24.6 0.9 0
24.9 0.9 0
25.2 0.9 0
25.5 0.9 0
25.8 0.9 0
26.1 0.9 0
26.4 0.9 0
26.7 0.9 0
27 0.9 0
27.3 0.9 0
27.6 0.9 0
27.9 0.9 0
28.2 0.9 0
28.5 0.9 0
28.8 0.9 0
29.1 0.9 0
29.4 0.9 0
29.7 0.9 0
30 0.9 0
0 1 0
0.3 1 0
0.6 1 0
0.9 1 0
1.2 1 0
1.5 1 0
1.8 1 0
2.1 1 0
2.4 1 0
2.7 1 0
3 1 0
3.3 1 0
3.6 1 0
3.9 1 0
4.2 1 0
4.5 1 0
4.8 1 0
5.1 1 0
5.4 1 0
5.7 1 0
6 1 0
6.3 1 0
6.6 1 0
6.9 1 0
7.2 1 0
7.5 1 0
7.8 1 0
8.1 1 0
8.4 1 0
8.7 1 0
9 1 0
9.3 1 0
9.6 1 0
9.9 1 0
10.2 1 0
10.5 1 0
10.8 1 0
11.1 1 0
11.4 1 0
11.7 1 0
12 1 0
12.3 1 0
12.6 1 0
12.9 1 0
13.2 1 0
13.5 1 0
13.8 1 0
14.1 1 0
14.4 1 0
14.7 1 0
15 1 0
15.3 1 0
15.6 1 0
15.9 1 0
16.2 1 0
16.5 1 0
16.8 1 0
17.1 1 0
17.4 1 0
17.7 1 0
18 1 0
18.3 1 0
18.6 1 0
18.9 1 0
19.2 1 0
19.5 1 0
19.8 1 0
20.1 1 0
20.4 1 0
20.7 1 0
21 1 0
21.3 1 0
21.6 1 0
21.9 1 0
22.2 1 0
22.5 1 0
22.8 1 0
23.1 1 0
23.4 1 0
23.7 1 0
24 1 0
24.3 1 0
24.6 1 0
24.9 1 0
25.2 1 0
25.5 1 0
25.8 1 0
26.1 1 0
26.4 1 0
26.7 1 0
27 1 0
27.3 1 0
27.6 1 0
27.9 1 0
28.2 1 0
28.5 1 0
28.8 1 0
29.1 1 0
29.4 1 0
29.7 1 0
30 1 0

POINT_DATA 1111

SCALARS u double
LOOKUP_TABLE default
-1
-0.892052
-0.781801
-0.688859
-0.614243
-0.556851
-0.515549
-0.488502
-0.472694
-0.464544
-0.460882
-0.459484
-0.459059
-0.458985
-0.459006
-0.459029
-0.459042
-0.459047
-0.45905
-0.45905
-0.459051
-0.459051
-0.459051
-0.459051
-0.459051
-0.459051
-0.459051
-0.459051
-0.459051
-0.459051
-0.459051
-0.459051
-0.459052
-0.459052
-0.459052
-0.459052
-0.459052
-0.459052
-0.459052
-0.459052
-0.459052
-0.459052
-0.459052
-0.459052
-0.459052
-0.459052
-0.459052
-0.459052
-0.459052
-0.459052
-0.459052
-0.459052
-0.459052
-0.459052
-0.459053
-0.459053
-0.459053
-0.459053
-0.459053
-0.459053
-0.459053
-0.459053
-0.459053
-0.459053
-0.459053
-0.459053
-0.459053
-0.459053
-0.459053
-0.459053
-0.459053
-0.459053
-0.459053
-0.459053
-0.459053
-0.459053
-0.459053
-0.459053
-0.459053
-0.459053
-0.459053
-0.459053
-0.459053
-0.459053
-0.459053
-0.459053
-0.459053
-0.459053
-0.459053
-0.459053
-0.459053
-0.459053
-0.459053
-0.459053
-0.459056
-0.459058
-0.459094
-0.459135
-0.459607
-0.459607
-1
1
0.892052
0.781801
0.688859
0.614243
0.556851
0.515549
0.488502
0.472694
0.464544
0.460882
0.459484
0.459059
0.458985
0.459006
0.459029
0.459042
0.459047
0.45905
0.45905
0.459051
0.459051
0.459051
0.459051
0.459051
0.459051
0.459051
0.459051
0.459051
0.459051
0.459051
0.459051
0.459052
0.459052
0.459052
0.459052
0.459052
0.459052
0.459052
0.459052
0.459052
0.459052
0.459052
0.459052
0.459052
0.459052
0.459052
0.459052
0.459052
0.459052
0.459052
0.459052
0.459052
0.459052
0.459053
0.459053
0.459053
0.459053
0.459053
0.459053
0.459053
0.459053
0.459053
0.459053
0.459053
0.459053
0.459053
0.459053
0.459053
0.459053
0.459053
0.459053
0.459053
0.459053
0.459053
0.459053
0.459053
0.459053
0.459053
0.459053
0.459053
0.459053
0.459053
0.459053
0.459053
0.459053
0.459053
0.459053
0.459053
0.459053
0.459053
0.459053
0.459053
0.459053
0.459056
0.459058
0.459094
0.459135
0.459607
0.459607
1
1
1.03005
1.03875
1.0358
1.02699
1.01603
1.00565
0.997536
0.992223
0.989352
0.988151
0.987859
0.987947
0.988123
0.988255
0.988335
0.988376
0.988395
0.988403
0.988407
0.988408
0.988408
0.988408
0.988408
0.988409
0.988409
0.988409
0.988409
0.988409
0.988409
0.988409
0.988409
0.988409
0.988409
0.988409
0.988409
0.988409
0.988409
0.988409
0.988409
0.988409
0.988409
0.988409
0.988409
0.988409
0.988409
0.988409
0.98841
0.98841
0.98841
0.98841
0.98841
0.98841
0.98841
0.98841
0.98841
0.98841
0.98841
0.98841
0.98841
0.98841
0.98841
0.98841
0.98841
0.98841
0.98841
0.98841
0.98841
0.98841
0.988409
0.988409
0.988409
0.988409
0.988409
0.988409
0.988409
0.988409
0.988409
0.988409
0.988409
0.988409
0.988409
0.988409
0.988409
0.988409
0.988409
0.988409
0.988409
0.988409
0.988409
0.988409
0.988409
0.988409
0.988409
0.98841
0.988409
0.988428
0.988416
0.988755
0.988755
1
1
1.03528
1.07404
1.10714
1.13359
1.1537
1.168
1.17726
1.18262
1.18533
1.18652
1.18694
1.18704
1.18703
1.187
1.18699
1.18698
1.18698
1.18698
1.18698
1.18698
1.18698
1.18698
1.18698
1.18698
1.18698
1.18698
1.18698
1.18698
1.18698
1.18698
1.18698
1.18698
1.18698
1.18698
1.18698
1.18698
1.18698
1.18698
1.18698
1.18698
1.18698
1.18698
1.18698
1.18698
1.18698
1.18698
1.18698
1.18698
1.18698
1.18698
1.18698
1.18698
1.18698
1.18698
1.18698
1.18698
1.18698
1.18698
1.18698
1.18698
1.18698
1.18698
1.18698
1.18698
1.18698
1.18698
1.18698
1.18698
1.18698
1.18698
1.18698
1.18698
1.18698
1.18698
1.18698
1.18698
1.18698
1.18698
1.18698
1.18698
1.18698
1.18698
1.18698
1.18698
1.18698
1.18698
1.18698
1.18698
1.18698
1.18698
1.18698
1.18698
1.18698
1.18698
1.18698
1.18697
1.18696
1.18679
1.18679
1
1
1.0292
1.0712
1.11273
1.15009
1.18149
1.20566
1.22231
1.23238
1.23765
1.23996
1.24073
1.24086
1.24079
1.2407
1.24064
1.2406
1.24059
1.24058
1.24058
1.24058
1.24058
1.24058
1.24058
1.24058
1.24058
1.24058
1.24058
1.24058
1.24058
1.24058
1.24058
1.24058
1.24058
1.24058
1.24058
1.24058
1.24058
1.24058
1.24058
1.24058
1.24058
1.24058
1.24058
1.24058
1.24058
1.24058
1.24058
1.24058
1.24058
1.24058
1.24058
1.24058
1.24058
1.24058
1.24058
1.24058
1.24058
1.24058
1.24058
1.24058
1.24058
1.24058
1.24058
1.24058
1.24058
1.24058
1.24058
1.24058
1.24058
1.24058
1.24058
1.24058
1.24058
1.24058
1.24058
1.24058
1.24058
1.24058
1.24058
1.24058
1.24058
1.24058
1.24058
1.24058
1.24058
1.24058
1.24058
1.24058
1.24058
1.24058
1.24058
1.24058
1.24058
1.24057
1.24057
1.24055
1.24053
1.24012
1.24012
1
1
1.02684
1.06844
1.11094
1.15017
1.18387
1.2103
1.2288
1.24017
1.24624
1.24899
1.24998
1.2502
1.25017
1.25009
1.25003
1.25
1.24998
1.24998
1.24997
1.24997
1.24997
1.24997
1.24997
1.24997
1.24997
1.24997
1.24997
1.24997
1.24997
1.24997
1.24997
1.24997
1.24997
1.24997
1.24997
1.24997
1.24997
1.24997
1.24997
1.24997
1.24997
1.24997
1.24997
1.24997
1.24997
1.24997
1.24997
1.24997
1.24997
1.24997
1.24997
1.24997
1.24997
1.24997
1.24997
1.24997
1.24997
1.24997
1.24997
1.24997
1.24997
1.24997
1.24997
1.24997
1.24997
1.24997
1.24997
1.24997
1.24997
1.24997
1.24997
1.24997
1.24997
1.24997
1.24997
1.24997
1.24997
1.24997
1.24997
1.24997
1.24997
1.24997
1.24997
1.24997
1.24997
1.24997
1.24997
1.24997
1.24997
1.24997
1.24997
1.24997
1.24997
1.24997
1.24997
1.24994
1.24991
1.24945
1.24945
1
1
1.0292
1.0712
1.11273
1.15009
1.18149
1.20566
1.22231
1.23238
1.23765
1.23996
1.24073
1.24086
1.24079
1.2407
1.24064
1.2406
1.24059
1.24058
1.24058
1.24058
1.24058
1.24058
1.24058
1.24058
1.24058
1.24058
1.24058
1.24058
1.24058
1.24058
1.24058
1.24058
1.24058
1.24058
1.24058
1.24058
1.24058
1.24058
1.24058
1.24058
1.24058
1.24058
1.24058
1.24058
1.24058
1.24058
1.24058
1.24058
1.24058
1.24058
1.24058
1.24058
1.24058
1.24058
1.24058
1.24058
1.24058
1.24058
1.24058
1.24058
1.24058
1.24058
1.24058
1.24058
1.24058
1.24058
1.24058
1.24058
1.24058
1.24058
1.24058
1.24058
1.24058
1.24058
1.24058
1.24058
1.24058
1.24058
1.24058
1.24058
1.24058
1.24058
1.24058
1.24058
1.24058
1.24058
1.24058
1.24058
1.24058
1.24058
1.24058
1.24058
1.24058
1.24057
1.24057
1.24055
1.24053
1.24012
1.24012
1
1
1.03528
1.07404
1.10714
1.13359
1.1537
1.168
1.17726
1.18262
1.18533
1.18652
1.18694
1.18704
1.18703
1.187
1.18699
1.18698
1.18698
1.18698
1.18698
1.18698
1.18698
1.18698
1.18698
1.18698
1.18698
1.18698
1.18698
1.18698
1.18698
1.18698
1.18698
1.18698
1.18698
1.18698
1.18698
1.18698
1.18698
1.18698
1.18698
1.18698
1.18698
1.18698
1.18698
1.18698
1.18698
1.18698
1.18698
1.18698
1.18698
1.18698
1.18698
1.18698
1.18698
1.18698
1.18698
1.18698
1.18698
1.18698
1.18698
1.18698
1.18698
1.18698
1.18698
1.18698
1.18698
1.18698
1.18698
1.18698
1.18698
1.18698
1.18698
1.18698
1.18698
1.18698
1.18698
1.18698
1.18698
1.18698
1.18698
1.18698
1.18698
1.18698
1.18698
1.18698
1.18698
1.18698
1.18698
1.18698
1.18698
1.18698
1.18698
1.18698
1.18698
1.18698
1.18698
1.18697
1.18696
1.18679
1.18679
1
1
1.03005
1.03875
1.0358
1.02699
1.01603
1.00565
0.997535
0.992222
0.989351
0.98815
0.987857
0.987945
0.988121
0.988254
0.988333
0.988375
0.988394
0.988402
0.988405
0.988406
0.988407
0.988407
0.988407
0.988407
0.988407
0.988407
0.988407
0.988407
0.988407
0.988407
0.988408
0.988408
0.988408
0.988408
0.988408
0.988408
0.988408
0.988408
0.988408
0.988408
0.988408
0.988408
0.988408
0.988408
0.988408
0.988408
0.988408
0.988408
0.988408
0.988408
0.988408
0.988408
0.988408
0.988408
0.988408
0.988408
0.988408
0.988408
0.988408
0.988408
0.988408
0.988408
0.988408
0.988408
0.988408
0.988408
0.988408
0.988408
0.988408
0.988408
0.988408
0.988408
0.988408
0.988408
0.988408
0.988408
0.988408
0.988408
0.988408
0.988408
0.988408
0.988408
0.988408
0.988408
0.988408
0.988408
0.988408
0.988408
0.988408
0.988408
0.988408
0.988408
0.988408
0.988409
0.988408
0.988427
0.988415
0.988754
0.988754
1
1
0.892052
0.781801
0.68886
0.614244
0.556851
0.515549
0.488502
0.472693
0.464543
0.460881
0.459483
0.459058
0.458984
0.459005
0.459028
0.459041
0.459047
0.459049
0.459049
0.45905
0.45905
0.45905
0.45905
0.45905
0.45905
0.45905
0.45905
0.45905
0.45905
0.45905
0.45905
0.45905
0.459051
0.459051
0.459051
0.459051
0.459051
0.459051
0.459051
0.459051
0.459051
0.459051
0.459051
0.459051
0.459051
0.459051
0.459051
0.459051
0.459051
0.459051
0.459051
0.459051
0.459051
0.459051
0.459051
0.459051
0.459051
0.459051
0.459051
0.459051
0.459051
0.459051
0.459051
0.459051
0.459051
0.459052
0.459052
0.459052
0.459052
0.459052
0.459052
0.459052
0.459052
0.459052
0.459052
0.459052
0.459052
0.459052
0.459052
0.459052
0.459052
0.459052
0.459052
0.459052
0.459052
0.459052
0.459052
0.459052
0.459052
0.459052
0.459052
0.459052
0.459052
0.459054
0.459056
0.459093
0.459134
0.459605
0.459605
1
-1
-0.892052
-0.781801
-0.68886
-0.614244
-0.556851
-0.515549
-0.488502
-0.472693
-0.464543
-0.460881
-0.459483
-0.459058
-0.458984
-0.459005
-0.459028
-0.459041
-0.459047
-0.459049
-0.459049
-0.45905
-0.45905
-0.45905
-0.45905
-0.45905
-0.45905
-0.45905
-0.45905
-0.45905
-0.45905
-0.45905
-0.45905
-0.45905
-0.459051
-0.459051
-0.459051
-0.459051
-0.459051
-0.459051
-0.459051
-0.459051
-0.459051
-0.459051
-0.459051
-0.459051
-0.459051
-0.459051
-0.459051
-0.459051
-0.459051
-0.459051
-0.459051
-0.459051
-0.459051
-0.459051
-0.459051
-0.459051
-0.459051
-0.459051
-0.459051
-0.459051
-0.459051
-0.459051
-0.459051
-0.459051
-0.459051
-0.459052
-0.459052
-0.459052
-0.459052
-0.459052
-0.459052
-0.459052
-0.459052
-0.459052
-0.459052
-0.459052
-0.459052
-0.459052
-0.459052
-0.459052
-0.459052
-0.459052
-0.459052
-0.459052
-0.459052
-0.459052
-0.459052
-0.459052
-0.459052
-0.459052
-0.459052
-0.459052
-0.459052
-0.459054
-0.459056
-0.459093
-0.459134
-0.459605
-0.459605
-1
