# vtk DataFile Version 2.0
FlowField
ASCII
DATASET STRUCTURED_GRID
DIMENSIONS 102 12 1 
POINTS 1224 double
0 0 0
0.3 0 0
0.6 0 0
0.9 0 0
1.2 0 0
1.5 0 0
1.8 0 0
2.1 0 0
2.4 0 0
2.7 0 0
3 0 0
3.3 0 0
3.6 0 0
3.9 0 0
4.2 0 0
4.5 0 0
4.8 0 0
5.1 0 0
5.4 0 0
5.7 0 0
6 0 0
6.3 0 0
6.6 0 0
6.9 0 0
7.2 0 0
7.5 0 0
7.8 0 0
8.1 0 0
8.4 0 0
8.7 0 0
9 0 0
9.3 0 0
9.6 0 0
9.9 0 0
10.2 0 0
10.5 0 0
10.8 0 0
11.1 0 0
11.4 0 0
11.7 0 0
12 0 0
12.3 0 0
12.6 0 0
12.9 0 0
13.2 0 0
13.5 0 0
13.8 0 0
14.1 0 0
14.4 0 0
14.7 0 0
15 0 0
15.3 0 0
15.6 0 0
15.9 0 0
16.2 0 0
16.5 0 0
16.8 0 0
17.1 0 0
17.4 0 0
17.7 0 0
18 0 0
18.3 0 0
18.6 0 0
18.9 0 0
19.2 0 0
19.5 0 0
19.8 0 0
20.1 0 0
20.4 0 0
20.7 0 0
21 0 0
21.3 0 0
21.6 0 0
21.9 0 0
22.2 0 0
22.5 0 0
22.8 0 0
23.1 0 0
23.4 0 0
23.7 0 0
24 0 0
24.3 0 0
24.6 0 0
24.9 0 0
25.2 0 0
25.5 0 0
25.8 0 0
26.1 0 0
26.4 0 0
26.7 0 0
27 0 0
27.3 0 0
27.6 0 0
27.9 0 0
28.2 0 0
28.5 0 0
28.8 0 0
29.1 0 0
29.4 0 0
29.7 0 0
30 0 0
30.3 0 0
0 0.1 0
0.3 0.1 0
0.6 0.1 0
0.9 0.1 0
1.2 0.1 0
1.5 0.1 0
1.8 0.1 0
2.1 0.1 0
2.4 0.1 0
2.7 0.1 0
3 0.1 0
3.3 0.1 0
3.6 0.1 0
3.9 0.1 0
4.2 0.1 0
4.5 0.1 0
4.8 0.1 0
5.1 0.1 0
5.4 0.1 0
5.7 0.1 0
6 0.1 0
6.3 0.1 0
6.6 0.1 0
6.9 0.1 0
7.2 0.1 0
7.5 0.1 0
7.8 0.1 0
8.1 0.1 0
8.4 0.1 0
8.7 0.1 0
9 0.1 0
9.3 0.1 0
9.6 0.1 0
9.9 0.1 0
10.2 0.1 0
10.5 0.1 0
10.8 0.1 0
11.1 0.1 0
11.4 0.1 0
11.7 0.1 0
12 0.1 0
12.3 0.1 0
12.6 0.1 0
12.9 0.1 0
13.2 0.1 0
13.5 0.1 0
13.8 0.1 0
14.1 0.1 0
14.4 0.1 0
14.7 0.1 0
15 0.1 0
15.3 0.1 0
15.6 0.1 0
15.9 0.1 0
16.2 0.1 0
16.5 0.1 0
16.8 0.1 0
17.1 0.1 0
17.4 0.1 0
17.7 0.1 0
18 0.1 0
18.3 0.1 0
18.6 0.1 0
18.9 0.1 0
19.2 0.1 0
19.5 0.1 0
19.8 0.1 0
20.1 0.1 0
20.4 0.1 0
20.7 0.1 0
21 0.1 0
21.3 0.1 0
21.6 0.1 0
21.9 0.1 0
22.2 0.1 0
22.5 0.1 0
22.8 0.1 0
23.1 0.1 0
23.4 0.1 0
23.7 0.1 0
24 0.1 0
24.3 0.1 0
24.6 0.1 0
24.9 0.1 0
25.2 0.1 0
25.5 0.1 0
25.8 0.1 0
26.1 0.1 0
26.4 0.1 0
26.7 0.1 0
27 0.1 0
27.3 0.1 0
27.6 0.1 0
27.9 0.1 0
28.2 0.1 0
28.5 0.1 0
28.8 0.1 0
29.1 0.1 0
29.4 0.1 0
29.7 0.1 0
30 0.1 0
30.3 0.1 0
0 0.2 0
0.3 0.2 0
0.6 0.2 0
0.9 0.2 0
1.2 0.2 0
1.5 0.2 0
1.8 0.2 0
2.1 0.2 0
2.4 0.2 0
2.7 0.2 0
3 0.2 0
3.3 0.2 0
3.6 0.2 0
3.9 0.2 0
4.2 0.2 0
4.5 0.2 0
4.8 0.2 0
5.1 0.2 0
5.4 0.2 0
5.7 0.2 0
6 0.2 0
6.3 0.2 0
6.6 0.2 0
6.9 0.2 0
7.2 0.2 0
7.5 0.2 0
7.8 0.2 0
8.1 0.2 0
8.4 0.2 0
8.7 0.2 0
9 0.2 0
9.3 0.2 0
9.6 0.2 0
9.9 0.2 0
10.2 0.2 0
10.5 0.2 0
10.8 0.2 0
11.1 0.2 0
11.4 0.2 0
11.7 0.2 0
12 0.2 0
12.3 0.2 0
12.6 0.2 0
12.9 0.2 0
13.2 0.2 0
13.5 0.2 0
13.8 0.2 0
14.1 0.2 0
14.4 0.2 0
14.7 0.2 0
15 0.2 0
15.3 0.2 0
15.6 0.2 0
15.9 0.2 0
16.2 0.2 0
16.5 0.2 0
16.8 0.2 0
17.1 0.2 0
17.4 0.2 0
17.7 0.2 0
18 0.2 0
18.3 0.2 0
18.6 0.2 0
18.9 0.2 0
19.2 0.2 0
19.5 0.2 0
19.8 0.2 0
20.1 0.2 0
20.4 0.2 0
20.7 0.2 0
21 0.2 0
21.3 0.2 0
21.6 0.2 0
21.9 0.2 0
22.2 0.2 0
22.5 0.2 0
22.8 0.2 0
23.1 0.2 0
23.4 0.2 0
23.7 0.2 0
24 0.2 0
24.3 0.2 0
24.6 0.2 0
24.9 0.2 0
25.2 0.2 0
25.5 0.2 0
25.8 0.2 0
26.1 0.2 0
26.4 0.2 0
26.7 0.2 0
27 0.2 0
27.3 0.2 0
27.6 0.2 0
27.9 0.2 0
28.2 0.2 0
28.5 0.2 0
28.8 0.2 0
29.1 0.2 0
29.4 0.2 0
29.7 0.2 0
30 0.2 0
30.3 0.2 0
0 0.3 0
0.3 0.3 0
0.6 0.3 0
0.9 0.3 0
1.2 0.3 0
1.5 0.3 0
1.8 0.3 0
2.1 0.3 0
2.4 0.3 0
2.7 0.3 0
3 0.3 0
3.3 0.3 0
3.6 0.3 0
3.9 0.3 0
4.2 0.3 0
4.5 0.3 0
4.8 0.3 0
5.1 0.3 0
5.4 0.3 0
5.7 0.3 0
6 0.3 0
6.3 0.3 0
6.6 0.3 0
6.9 0.3 0
7.2 0.3 0
7.5 0.3 0
7.8 0.3 0
8.1 0.3 0
8.4 0.3 0
8.7 0.3 0
9 0.3 0
9.3 0.3 0
9.6 0.3 0
9.9 0.3 0
10.2 0.3 0
10.5 0.3 0
10.8 0.3 0
11.1 0.3 0
11.4 0.3 0
11.7 0.3 0
12 0.3 0
12.3 0.3 0
12.6 0.3 0
12.9 0.3 0
13.2 0.3 0
13.5 0.3 0
13.8 0.3 0
14.1 0.3 0
14.4 0.3 0
14.7 0.3 0
15 0.3 0
15.3 0.3 0
15.6 0.3 0
15.9 0.3 0
16.2 0.3 0
16.5 0.3 0
16.8 0.3 0
17.1 0.3 0
17.4 0.3 0
17.7 0.3 0
18 0.3 0
18.3 0.3 0
18.6 0.3 0
18.9 0.3 0
19.2 0.3 0
19.5 0.3 0
19.8 0.3 0
20.1 0.3 0
20.4 0.3 0
20.7 0.3 0
21 0.3 0
21.3 0.3 0
21.6 0.3 0
21.9 0.3 0
22.2 0.3 0
22.5 0.3 0
22.8 0.3 0
23.1 0.3 0
23.4 0.3 0
23.7 0.3 0
24 0.3 0
24.3 0.3 0
24.6 0.3 0
24.9 0.3 0
25.2 0.3 0
25.5 0.3 0
25.8 0.3 0
26.1 0.3 0
26.4 0.3 0
26.7 0.3 0
27 0.3 0
27.3 0.3 0
27.6 0.3 0
27.9 0.3 0
28.2 0.3 0
28.5 0.3 0
28.8 0.3 0
29.1 0.3 0
29.4 0.3 0
29.7 0.3 0
30 0.3 0
30.3 0.3 0
0 0.4 0
0.3 0.4 0
0.6 0.4 0
0.9 0.4 0
1.2 0.4 0
1.5 0.4 0
1.8 0.4 0
2.1 0.4 0
2.4 0.4 0
2.7 0.4 0
3 0.4 0
3.3 0.4 0
3.6 0.4 0
3.9 0.4 0
4.2 0.4 0
4.5 0.4 0
4.8 0.4 0
5.1 0.4 0
5.4 0.4 0
5.7 0.4 0
6 0.4 0
6.3 0.4 0
6.6 0.4 0
6.9 0.4 0
7.2 0.4 0
7.5 0.4 0
7.8 0.4 0
8.1 0.4 0
8.4 0.4 0
8.7 0.4 0
9 0.4 0
9.3 0.4 0
9.6 0.4 0
9.9 0.4 0
10.2 0.4 0
10.5 0.4 0
10.8 0.4 0
11.1 0.4 0
11.4 0.4 0
11.7 0.4 0
12 0.4 0
12.3 0.4 0
12.6 0.4 0
12.9 0.4 0
13.2 0.4 0
13.5 0.4 0
13.8 0.4 0
14.1 0.4 0
14.4 0.4 0
14.7 0.4 0
15 0.4 0
15.3 0.4 0
15.6 0.4 0
15.9 0.4 0
16.2 0.4 0
16.5 0.4 0
16.8 0.4 0
17.1 0.4 0
17.4 0.4 0
17.7 0.4 0
18 0.4 0
18.3 0.4 0
18.6 0.4 0
18.9 0.4 0
19.2 0.4 0
19.5 0.4 0
19.8 0.4 0
20.1 0.4 0
20.4 0.4 0
20.7 0.4 0
21 0.4 0
21.3 0.4 0
21.6 0.4 0
21.9 0.4 0
22.2 0.4 0
22.5 0.4 0
22.8 0.4 0
23.1 0.4 0
23.4 0.4 0
23.7 0.4 0
24 0.4 0
24.3 0.4 0
24.6 0.4 0
24.9 0.4 0
25.2 0.4 0
25.5 0.4 0
25.8 0.4 0
26.1 0.4 0
26.4 0.4 0
26.7 0.4 0
27 0.4 0
27.3 0.4 0
27.6 0.4 0
27.9 0.4 0
28.2 0.4 0
28.5 0.4 0
28.8 0.4 0
29.1 0.4 0
29.4 0.4 0
29.7 0.4 0
30 0.4 0
30.3 0.4 0
0 0.5 0
0.3 0.5 0
0.6 0.5 0
0.9 0.5 0
1.2 0.5 0
1.5 0.5 0
1.8 0.5 0
2.1 0.5 0
2.4 0.5 0
2.7 0.5 0
3 0.5 0
3.3 0.5 0
3.6 0.5 0
3.9 0.5 0
4.2 0.5 0
4.5 0.5 0
4.8 0.5 0
5.1 0.5 0
5.4 0.5 0
5.7 0.5 0
6 0.5 0
6.3 0.5 0
6.6 0.5 0
6.9 0.5 0
7.2 0.5 0
7.5 0.5 0
7.8 0.5 0
8.1 0.5 0
8.4 0.5 0
8.7 0.5 0
9 0.5 0
9.3 0.5 0
9.6 0.5 0
9.9 0.5 0
10.2 0.5 0
10.5 0.5 0
10.8 0.5 0
11.1 0.5 0
11.4 0.5 0
11.7 0.5 0
12 0.5 0
12.3 0.5 0
12.6 0.5 0
12.9 0.5 0
13.2 0.5 0
13.5 0.5 0
13.8 0.5 0
14.1 0.5 0
14.4 0.5 0
14.7 0.5 0
15 0.5 0
15.3 0.5 0
15.6 0.5 0
15.9 0.5 0
16.2 0.5 0
16.5 0.5 0
16.8 0.5 0
17.1 0.5 0
17.4 0.5 0
17.7 0.5 0
18 0.5 0
18.3 0.5 0
18.6 0.5 0
18.9 0.5 0
19.2 0.5 0
19.5 0.5 0
19.8 0.5 0
20.1 0.5 0
20.4 0.5 0
20.7 0.5 0
21 0.5 0
21.3 0.5 0
21.6 0.5 0
21.9 0.5 0
22.2 0.5 0
22.5 0.5 0
22.8 0.5 0
23.1 0.5 0
23.4 0.5 0
23.7 0.5 0
24 0.5 0
24.3 0.5 0
24.6 0.5 0
24.9 0.5 0
25.2 0.5 0
25.5 0.5 0
25.8 0.5 0
26.1 0.5 0
26.4 0.5 0
26.7 0.5 0
27 0.5 0
27.3 0.5 0
27.6 0.5 0
27.9 0.5 0
28.2 0.5 0
28.5 0.5 0
28.8 0.5 0
29.1 0.5 0
29.4 0.5 0
29.7 0.5 0
30 0.5 0
30.3 0.5 0
0 0.6 0
0.3 0.6 0
0.6 0.6 0
0.9 0.6 0
1.2 0.6 0
1.5 0.6 0
1.8 0.6 0
2.1 0.6 0
2.4 0.6 0
2.7 0.6 0
3 0.6 0
3.3 0.6 0
3.6 0.6 0
3.9 0.6 0
4.2 0.6 0
4.5 0.6 0
4.8 0.6 0
5.1 0.6 0
5.4 0.6 0
5.7 0.6 0
6 0.6 0
6.3 0.6 0
6.6 0.6 0
6.9 0.6 0
7.2 0.6 0
7.5 0.6 0
7.8 0.6 0
8.1 0.6 0
8.4 0.6 0
8.7 0.6 0
9 0.6 0
9.3 0.6 0
9.6 0.6 0
9.9 0.6 0
10.2 0.6 0
10.5 0.6 0
10.8 0.6 0
11.1 0.6 0
11.4 0.6 0
11.7 0.6 0
12 0.6 0
12.3 0.6 0
12.6 0.6 0
12.9 0.6 0
13.2 0.6 0
13.5 0.6 0
13.8 0.6 0
14.1 0.6 0
14.4 0.6 0
14.7 0.6 0
15 0.6 0
15.3 0.6 0
15.6 0.6 0
15.9 0.6 0
16.2 0.6 0
16.5 0.6 0
16.8 0.6 0
17.1 0.6 0
17.4 0.6 0
17.7 0.6 0
18 0.6 0
18.3 0.6 0
18.6 0.6 0
18.9 0.6 0
19.2 0.6 0
19.5 0.6 0
19.8 0.6 0
20.1 0.6 0
20.4 0.6 0
20.7 0.6 0
21 0.6 0
21.3 0.6 0
21.6 0.6 0
21.9 0.6 0
22.2 0.6 0
22.5 0.6 0
22.8 0.6 0
23.1 0.6 0
23.4 0.6 0
23.7 0.6 0
24 0.6 0
24.3 0.6 0
24.6 0.6 0
24.9 0.6 0
25.2 0.6 0
25.5 0.6 0
25.8 0.6 0
26.1 0.6 0
26.4 0.6 0
26.7 0.6 0
27 0.6 0
27.3 0.6 0
27.6 0.6 0
27.9 0.6 0
28.2 0.6 0
28.5 0.6 0
28.8 0.6 0
29.1 0.6 0
29.4 0.6 0
29.7 0.6 0
30 0.6 0
30.3 0.6 0
0 0.7 0
0.3 0.7 0
0.6 0.7 0
0.9 0.7 0
1.2 0.7 0
1.5 0.7 0
1.8 0.7 0
2.1 0.7 0
2.4 0.7 0
2.7 0.7 0
3 0.7 0
3.3 0.7 0
3.6 0.7 0
3.9 0.7 0
4.2 0.7 0
4.5 0.7 0
4.8 0.7 0
5.1 0.7 0
5.4 0.7 0
5.7 0.7 0
6 0.7 0
6.3 0.7 0
6.6 0.7 0
6.9 0.7 0
7.2 0.7 0
7.5 0.7 0
7.8 0.7 0
8.1 0.7 0
8.4 0.7 0
8.7 0.7 0
9 0.7 0
9.3 0.7 0
9.6 0.7 0
9.9 0.7 0
10.2 0.7 0
10.5 0.7 0
10.8 0.7 0
11.1 0.7 0
11.4 0.7 0
11.7 0.7 0
12 0.7 0
12.3 0.7 0
12.6 0.7 0
12.9 0.7 0
13.2 0.7 0
13.5 0.7 0
13.8 0.7 0
14.1 0.7 0
14.4 0.7 0
14.7 0.7 0
15 0.7 0
15.3 0.7 0
15.6 0.7 0
15.9 0.7 0
16.2 0.7 0
16.5 0.7 0
16.8 0.7 0
17.1 0.7 0
17.4 0.7 0
17.7 0.7 0
18 0.7 0
18.3 0.7 0
18.6 0.7 0
18.9 0.7 0
19.2 0.7 0
19.5 0.7 0
19.8 0.7 0
20.1 0.7 0
20.4 0.7 0
20.7 0.7 0
21 0.7 0
21.3 0.7 0
21.6 0.7 0
21.9 0.7 0
22.2 0.7 0
22.5 0.7 0
22.8 0.7 0
23.1 0.7 0
23.4 0.7 0
23.7 0.7 0
24 0.7 0
24.3 0.7 0
24.6 0.7 0
24.9 0.7 0
25.2 0.7 0
25.5 0.7 0
25.8 0.7 0
26.1 0.7 0
26.4 0.7 0
26.7 0.7 0
27 0.7 0
27.3 0.7 0
27.6 0.7 0
27.9 0.7 0
28.2 0.7 0
28.5 0.7 0
28.8 0.7 0
29.1 0.7 0
29.4 0.7 0
29.7 0.7 0
30 0.7 0
30.3 0.7 0
0 0.8 0
0.3 0.8 0
0.6 0.8 0
0.9 0.8 0
1.2 0.8 0
1.5 0.8 0
1.8 0.8 0
2.1 0.8 0
2.4 0.8 0
2.7 0.8 0
3 0.8 0
3.3 0.8 0
3.6 0.8 0
3.9 0.8 0
4.2 0.8 0
4.5 0.8 0
4.8 0.8 0
5.1 0.8 0
5.4 0.8 0
5.7 0.8 0
6 0.8 0
6.3 0.8 0
6.6 0.8 0
6.9 0.8 0
7.2 0.8 0
7.5 0.8 0
7.8 0.8 0
8.1 0.8 0
8.4 0.8 0
8.7 0.8 0
9 0.8 0
9.3 0.8 0
9.6 0.8 0
9.9 0.8 0
10.2 0.8 0
10.5 0.8 0
10.8 0.8 0
11.1 0.8 0
11.4 0.8 0
11.7 0.8 0
12 0.8 0
12.3 0.8 0
12.6 0.8 0
12.9 0.8 0
13.2 0.8 0
13.5 0.8 0
13.8 0.8 0
14.1 0.8 0
14.4 0.8 0
14.7 0.8 0
15 0.8 0
15.3 0.8 0
15.6 0.8 0
15.9 0.8 0
16.2 0.8 0
16.5 0.8 0
16.8 0.8 0
17.1 0.8 0
17.4 0.8 0
17.7 0.8 0
18 0.8 0
18.3 0.8 0
18.6 0.8 0
18.9 0.8 0
19.2 0.8 0
19.5 0.8 0
19.8 0.8 0
20.1 0.8 0
20.4 0.8 0
20.7 0.8 0
21 0.8 0
21.3 0.8 0
21.6 0.8 0
21.9 0.8 0
22.2 0.8 0
22.5 0.8 0
22.8 0.8 0
23.1 0.8 0
23.4 0.8 0
23.7 0.8 0
24 0.8 0
24.3 0.8 0
24.6 0.8 0
24.9 0.8 0
25.2 0.8 0
25.5 0.8 0
25.8 0.8 0
26.1 0.8 0
26.4 0.8 0
26.7 0.8 0
27 0.8 0
27.3 0.8 0
27.6 0.8 0
27.9 0.8 0
28.2 0.8 0
28.5 0.8 0
28.8 0.8 0
29.1 0.8 0
29.4 0.8 0
29.7 0.8 0
30 0.8 0
30.3 0.8 0
0 0.9 0
0.3 0.9 0
0.6 0.9 0
0.9 0.9 0
1.2 0.9 0
1.5 0.9 0
1.8 0.9 0
2.1 0.9 0
2.4 0.9 0
2.7 0.9 0
3 0.9 0
3.3 0.9 0
3.6 0.9 0
3.9 0.9 0
4.2 0.9 0
4.5 0.9 0
4.8 0.9 0
5.1 0.9 0
5.4 0.9 0
5.7 0.9 0
6 0.9 0
6.3 0.9 0
6.6 0.9 0
6.9 0.9 0
7.2 0.9 0
7.5 0.9 0
7.8 0.9 0
8.1 0.9 0
8.4 0.9 0
8.7 0.9 0
9 0.9 0
9.3 0.9 0
9.6 0.9 0
9.9 0.9 0
10.2 0.9 0
10.5 0.9 0
10.8 0.9 0
11.1 0.9 0
11.4 0.9 0
11.7 0.9 0
12 0.9 0
12.3 0.9 0
12.6 0.9 0
12.9 0.9 0
13.2 0.9 0
13.5 0.9 0
13.8 0.9 0
14.1 0.9 0
14.4 0.9 0
14.7 0.9 0
15 0.9 0
15.3 0.9 0
15.6 0.9 0
15.9 0.9 0
16.2 0.9 0
16.5 0.9 0
16.8 0.9 0
17.1 0.9 0
17.4 0.9 0
17.7 0.9 0
18 0.9 0
18.3 0.9 0
18.6 0.9 0
18.9 0.9 0
19.2 0.9 0
19.5 0.9 0
19.8 0.9 0
20.1 0.9 0
20.4 0.9 0
20.7 0.9 0
21 0.9 0
21.3 0.9 0
21.6 0.9 0
21.9 0.9 0
22.2 0.9 0
22.5 0.9 0
22.8 0.9 0
23.1 0.9 0
23.4 0.9 0
23.7 0.9 0
24 0.9 0
24.3 0.9 0
24.6 0.9 0
24.9 0.9 0
25.2 0.9 0
25.5 0.9 0
25.8 0.9 0
26.1 0.9 0
26.4 0.9 0
26.7 0.9 0
27 0.9 0
27.3 0.9 0
27.6 0.9 0
27.9 0.9 0
28.2 0.9 0
28.5 0.9 0
28.8 0.9 0
29.1 0.9 0
29.4 0.9 0
29.7 0.9 0
30 0.9 0
30.3 0.9 0
0 1 0
0.3 1 0
0.6 1 0
0.9 1 0
1.2 1 0
1.5 1 0
1.8 1 0
2.1 1 0
2.4 1 0
2.7 1 0
3 1 0
3.3 1 0
3.6 1 0
3.9 1 0
4.2 1 0
4.5 1 0
4.8 1 0
5.1 1 0
5.4 1 0
5.7 1 0
6 1 0
6.3 1 0
6.6 1 0
6.9 1 0
7.2 1 0
7.5 1 0
7.8 1 0
8.1 1 0
8.4 1 0
8.7 1 0
9 1 0
9.3 1 0
9.6 1 0
9.9 1 0
10.2 1 0
10.5 1 0
10.8 1 0
11.1 1 0
11.4 1 0
11.7 1 0
12 1 0
12.3 1 0
12.6 1 0
12.9 1 0
13.2 1 0
13.5 1 0
13.8 1 0
14.1 1 0
14.4 1 0
14.7 1 0
15 1 0
15.3 1 0
15.6 1 0
15.9 1 0
16.2 1 0
16.5 1 0
16.8 1 0
17.1 1 0
17.4 1 0
17.7 1 0
18 1 0
18.3 1 0
18.6 1 0
18.9 1 0
19.2 1 0
19.5 1 0
19.8 1 0
20.1 1 0
20.4 1 0
20.7 1 0
21 1 0
21.3 1 0
21.6 1 0
21.9 1 0
22.2 1 0
22.5 1 0
22.8 1 0
23.1 1 0
23.4 1 0
23.7 1 0
24 1 0
24.3 1 0
24.6 1 0
24.9 1 0
25.2 1 0
25.5 1 0
25.8 1 0
26.1 1 0
26.4 1 0
26.7 1 0
27 1 0
27.3 1 0
27.6 1 0
27.9 1 0
28.2 1 0
28.5 1 0
28.8 1 0
29.1 1 0
29.4 1 0
29.7 1 0
30 1 0
30.3 1 0
0 1.1 0
0.3 1.1 0
0.6 1.1 0
0.9 1.1 0
1.2 1.1 0
1.5 1.1 0
1.8 1.1 0
2.1 1.1 0
2.4 1.1 0
2.7 1.1 0
3 1.1 0
3.3 1.1 0
3.6 1.1 0
3.9 1.1 0
4.2 1.1 0
4.5 1.1 0
4.8 1.1 0
5.1 1.1 0
5.4 1.1 0
5.7 1.1 0
6 1.1 0
6.3 1.1 0
6.6 1.1 0
6.9 1.1 0
7.2 1.1 0
7.5 1.1 0
7.8 1.1 0
8.1 1.1 0
8.4 1.1 0
8.7 1.1 0
9 1.1 0
9.3 1.1 0
9.6 1.1 0
9.9 1.1 0
10.2 1.1 0
10.5 1.1 0
10.8 1.1 0
11.1 1.1 0
11.4 1.1 0
11.7 1.1 0
12 1.1 0
12.3 1.1 0
12.6 1.1 0
12.9 1.1 0
13.2 1.1 0
13.5 1.1 0
13.8 1.1 0
14.1 1.1 0
14.4 1.1 0
14.7 1.1 0
15 1.1 0
15.3 1.1 0
15.6 1.1 0
15.9 1.1 0
16.2 1.1 0
16.5 1.1 0
16.8 1.1 0
17.1 1.1 0
17.4 1.1 0
17.7 1.1 0
18 1.1 0
18.3 1.1 0
18.6 1.1 0
18.9 1.1 0
19.2 1.1 0
19.5 1.1 0
19.8 1.1 0
20.1 1.1 0
20.4 1.1 0
20.7 1.1 0
21 1.1 0
21.3 1.1 0
21.6 1.1 0
21.9 1.1 0
22.2 1.1 0
22.5 1.1 0
22.8 1.1 0
23.1 1.1 0
23.4 1.1 0
23.7 1.1 0
24 1.1 0
24.3 1.1 0
24.6 1.1 0
24.9 1.1 0
25.2 1.1 0
25.5 1.1 0
25.8 1.1 0
26.1 1.1 0
26.4 1.1 0
26.7 1.1 0
27 1.1 0
27.3 1.1 0
27.6 1.1 0
27.9 1.1 0
28.2 1.1 0
28.5 1.1 0
28.8 1.1 0
29.1 1.1 0
29.4 1.1 0
29.7 1.1 0
30 1.1 0
30.3 1.1 0

POINT_DATA 1224

SCALARS u double
LOOKUP_TABLE default
-1
-0.890155
-0.775928
-0.678686
-0.600314
-0.539058
-0.492138
-0.456612
-0.429788
-0.409424
-0.393769
-0.381516
-0.371723
-0.363721
-0.357042
-0.35136
-0.346447
-0.342138
-0.338317
-0.334899
-0.33182
-0.329035
-0.326511
-0.324224
-0.322161
-0.320315
-0.318681
-0.317257
-0.316038
-0.315015
-0.314175
-0.313503
-0.312978
-0.312578
-0.31228
-0.312066
-0.311914
-0.31181
-0.31174
-0.311694
-0.311665
-0.311647
-0.311635
-0.311629
-0.311625
-0.311623
-0.311622
-0.311621
-0.311621
-0.31162
-0.31162
-0.31162
-0.31162
-0.31162
-0.31162
-0.31162
-0.31162
-0.31162
-0.31162
-0.31162
-0.31162
-0.31162
-0.31162
-0.31162
-0.31162
-0.31162
-0.31162
-0.31162
-0.31162
-0.31162
-0.31162
-0.31162
-0.31162
-0.311621
-0.311621
-0.311621
-0.311621
-0.311621
-0.311621
-0.311621
-0.311621
-0.311621
-0.311621
-0.311621
-0.311621
-0.311621
-0.311621
-0.311621
-0.311621
-0.311621
-0.311621
-0.311621
-0.311621
-0.311621
-0.311621
-0.311621
-0.311621
-0.311624
-0.311627
-0.311635
-0.311635
-1
1
0.890155
0.775928
0.678686
0.600314
0.539058
0.492138
0.456612
0.429788
0.409424
0.393769
0.381516
0.371723
0.363721
0.357042
0.35136
0.346447
0.342138
0.338317
0.334899
0.33182
0.329035
0.326511
0.324224
0.322161
0.320315
0.318681
0.317257
0.316038
0.315015
0.314175
0.313503
0.312978
0.312578
0.31228
0.312066
0.311914
0.31181
0.31174
0.311694
0.311665
0.311647
0.311635
0.311629
0.311625
0.311623
0.311622
0.311621
0.311621
0.31162
0.31162
0.31162
0.31162
0.31162
0.31162
0.31162
0.31162
0.31162
0.31162
0.31162
0.31162
0.31162
0.31162
0.31162
0.31162
0.31162
0.31162
0.31162
0.31162
0.31162
0.31162
0.31162
0.31162
0.311621
0.311621
0.311621
0.311621
0.311621
0.311621
0.311621
0.311621
0.311621
0.311621
0.311621
0.311621
0.311621
0.311621
0.311621
0.311621
0.311621
0.311621
0.311621
0.311621
0.311621
0.311621
0.311621
0.311621
0.311624
0.311627
0.311635
0.311635
1
1
1.02798
1.03242
1.02466
1.01102
0.994783
0.977789
0.961059
0.945139
0.930292
0.916614
0.904107
0.892723
0.882386
0.873008
0.8645
0.856776
0.849755
0.843362
0.837533
0.832212
0.827354
0.822923
0.818897
0.81526
0.812005
0.809127
0.806621
0.804478
0.802682
0.801211
0.800033
0.799113
0.798413
0.797893
0.797518
0.797253
0.797071
0.796949
0.796869
0.796819
0.796787
0.796768
0.796757
0.79675
0.796746
0.796744
0.796743
0.796743
0.796743
0.796742
0.796742
0.796742
0.796742
0.796742
0.796742
0.796742
0.796742
0.796742
0.796743
0.796743
0.796743
0.796743
0.796743
0.796743
0.796743
0.796743
0.796743
0.796743
0.796743
0.796743
0.796743
0.796743
0.796743
0.796743
0.796743
0.796743
0.796743
0.796743
0.796743
0.796743
0.796743
0.796743
0.796743
0.796743
0.796743
0.796743
0.796743
0.796743
0.796743
0.796743
0.796743
0.796743
0.796743
0.796743
0.796743
0.796743
0.796746
0.796745
0.796807
0.796807
1
1
1.03305
1.06793
1.0968
1.11906
1.13542
1.14691
1.1546
1.15942
1.16214
1.16336
1.1635
1.16291
1.1618
1.16036
1.1587
1.15691
1.15506
1.15319
1.15133
1.1495
1.14773
1.14603
1.14441
1.14289
1.14146
1.14014
1.13894
1.13787
1.13692
1.1361
1.13541
1.13484
1.13438
1.13402
1.13375
1.13354
1.13339
1.13329
1.13322
1.13317
1.13314
1.13312
1.13311
1.1331
1.13309
1.13309
1.13309
1.13309
1.13309
1.13309
1.13309
1.13309
1.13309
1.13309
1.13309
1.13309
1.13309
1.13309
1.13309
1.13309
1.13309
1.13309
1.13309
1.13309
1.13309
1.13309
1.13309
1.13309
1.13309
1.13309
1.13309
1.13309
1.13309
1.13309
1.13309
1.13309
1.13309
1.13309
1.13309
1.13309
1.13309
1.13309
1.13309
1.13309
1.13309
1.13309
1.13309
1.13309
1.13309
1.13309
1.13309
1.13309
1.13309
1.13309
1.13309
1.13309
1.13309
1.13309
1.13312
1.13312
1
1
1.02627
1.06424
1.10183
1.13558
1.16458
1.18891
1.20913
1.22592
1.23995
1.25177
1.26185
1.27053
1.27809
1.28474
1.29062
1.29585
1.30054
1.30475
1.30855
1.31199
1.31511
1.31793
1.32047
1.32276
1.32479
1.32658
1.32812
1.32943
1.33052
1.3314
1.33209
1.33262
1.33302
1.3333
1.3335
1.33364
1.33373
1.33379
1.33382
1.33384
1.33386
1.33386
1.33387
1.33387
1.33387
1.33387
1.33387
1.33387
1.33387
1.33387
1.33387
1.33387
1.33387
1.33387
1.33387
1.33387
1.33387
1.33387
1.33387
1.33387
1.33387
1.33387
1.33387
1.33387
1.33387
1.33387
1.33387
1.33387
1.33387
1.33387
1.33387
1.33387
1.33387
1.33387
1.33387
1.33387
1.33387
1.33387
1.33387
1.33387
1.33387
1.33387
1.33387
1.33387
1.33387
1.33387
1.33387
1.33387
1.33387
1.33387
1.33387
1.33387
1.33387
1.33387
1.33387
1.33387
1.33387
1.33387
1.33384
1.33384
1
1
1.02256
1.05948
1.09803
1.13402
1.16616
1.19425
1.21859
1.23973
1.25819
1.27449
1.28903
1.30212
1.314
1.32485
1.33482
1.34401
1.35251
1.36038
1.36769
1.37447
1.38077
1.38661
1.39199
1.39694
1.40143
1.40548
1.40906
1.41219
1.41487
1.41712
1.41896
1.42045
1.42161
1.4225
1.42317
1.42365
1.424
1.42424
1.4244
1.42451
1.42458
1.42462
1.42465
1.42466
1.42467
1.42468
1.42468
1.42468
1.42468
1.42469
1.42469
1.42469
1.42469
1.42469
1.42469
1.42469
1.42469
1.42469
1.42469
1.42469
1.42469
1.42469
1.42469
1.42469
1.42469
1.42469
1.42469
1.42469
1.42469
1.42469
1.42469
1.42469
1.42469
1.42469
1.42469
1.42469
1.42469
1.42469
1.42469
1.42469
1.42469
1.42469
1.42469
1.42469
1.42469
1.42469
1.42469
1.42469
1.42469
1.42469
1.42469
1.42469
1.42469
1.42469
1.42469
1.42469
1.42468
1.42468
1.42461
1.42461
1
1
1.02256
1.05948
1.09803
1.13402
1.16616
1.19425
1.21859
1.23973
1.25819
1.27449
1.28903
1.30212
1.314
1.32485
1.33482
1.34401
1.35251
1.36038
1.36769
1.37447
1.38077
1.38661
1.39199
1.39694
1.40143
1.40548
1.40906
1.41219
1.41487
1.41712
1.41896
1.42045
1.42161
1.4225
1.42317
1.42365
1.424
1.42424
1.4244
1.42451
1.42458
1.42462
1.42465
1.42466
1.42467
1.42468
1.42468
1.42468
1.42468
1.42469
1.42469
1.42469
1.42469
1.42469
1.42469
1.42469
1.42469
1.42469
1.42469
1.42469
1.42469
1.42469
1.42469
1.42469
1.42469
1.42469
1.42469
1.42469
1.42469
1.42469
1.42469
1.42469
1.42469
1.42469
1.42469
1.42469
1.42469
1.42469
1.42469
1.42469
1.42469
1.42469
1.42469
1.42469
1.42469
1.42469
1.42469
1.42469
1.42469
1.42469
1.42469
1.42469
1.42469
1.42469
1.42469
1.42469
1.42468
1.42468
1.42461
1.42461
1
1
1.02627
1.06424
1.10183
1.13558
1.16458
1.18891
1.20913
1.22592
1.23995
1.25177
1.26185
1.27053
1.2781
1.28474
1.29062
1.29585
1.30054
1.30475
1.30855
1.31199
1.31511
1.31793
1.32047
1.32276
1.32479
1.32658
1.32812
1.32943
1.33052
1.3314
1.33209
1.33262
1.33302
1.3333
1.3335
1.33364
1.33373
1.33379
1.33382
1.33384
1.33386
1.33386
1.33387
1.33387
1.33387
1.33387
1.33387
1.33387
1.33387
1.33387
1.33387
1.33387
1.33387
1.33387
1.33387
1.33387
1.33387
1.33387
1.33387
1.33387
1.33387
1.33387
1.33387
1.33387
1.33387
1.33387
1.33387
1.33387
1.33387
1.33387
1.33387
1.33387
1.33387
1.33387
1.33387
1.33387
1.33387
1.33387
1.33387
1.33387
1.33387
1.33387
1.33387
1.33387
1.33387
1.33387
1.33387
1.33387
1.33387
1.33387
1.33387
1.33387
1.33387
1.33387
1.33387
1.33387
1.33387
1.33387
1.33384
1.33384
1
1
1.03305
1.06793
1.0968
1.11906
1.13542
1.14691
1.1546
1.15942
1.16214
1.16336
1.1635
1.16291
1.1618
1.16036
1.1587
1.15691
1.15506
1.15319
1.15133
1.1495
1.14773
1.14603
1.14441
1.14289
1.14146
1.14014
1.13894
1.13787
1.13692
1.1361
1.13541
1.13484
1.13439
1.13403
1.13375
1.13354
1.13339
1.13329
1.13322
1.13317
1.13314
1.13312
1.13311
1.1331
1.13309
1.13309
1.13309
1.13309
1.13309
1.13309
1.13309
1.13309
1.13309
1.13309
1.13309
1.13309
1.13309
1.13309
1.13309
1.13309
1.13309
1.13309
1.13309
1.13309
1.13309
1.13309
1.13309
1.13309
1.13309
1.13309
1.13309
1.13309
1.13309
1.13309
1.13309
1.13309
1.13309
1.13309
1.13309
1.13309
1.13309
1.13309
1.13309
1.13309
1.13309
1.13309
1.13309
1.13309
1.13309
1.13309
1.13309
1.13309
1.13309
1.13309
1.13309
1.13309
1.13309
1.13309
1.13312
1.13312
1
1
1.02798
1.03242
1.02466
1.01102
0.994783
0.977789
0.96106
0.94514
0.930292
0.916614
0.904108
0.892724
0.882386
0.873009
0.864501
0.856777
0.849756
0.843363
0.837534
0.832213
0.827354
0.822924
0.818897
0.815261
0.812005
0.809127
0.806621
0.804479
0.802683
0.801212
0.800034
0.799114
0.798414
0.797894
0.797518
0.797253
0.797071
0.796949
0.79687
0.796819
0.796788
0.796769
0.796757
0.796751
0.796747
0.796745
0.796744
0.796743
0.796743
0.796743
0.796743
0.796743
0.796743
0.796743
0.796743
0.796743
0.796743
0.796743
0.796743
0.796743
0.796743
0.796743
0.796743
0.796743
0.796743
0.796743
0.796743
0.796743
0.796743
0.796743
0.796743
0.796743
0.796743
0.796743
0.796743
0.796743
0.796743
0.796743
0.796743
0.796743
0.796743
0.796743
0.796743
0.796743
0.796743
0.796743
0.796743
0.796743
0.796743
0.796743
0.796743
0.796743
0.796743
0.796743
0.796743
0.796743
0.796746
0.796744
0.796806
0.796806
1
1
0.890155
0.775928
0.678686
0.600315
0.539058
0.492139
0.456612
0.429788
0.409424
0.393769
0.381517
0.371723
0.363721
0.357042
0.351361
0.346447
0.342138
0.338317
0.334899
0.331821
0.329036
0.326511
0.324224
0.322162
0.320315
0.318682
0.317258
0.316038
0.315015
0.314176
0.313503
0.312978
0.312578
0.312281
0.312066
0.311914
0.31181
0.31174
0.311694
0.311665
0.311647
0.311636
0.311629
0.311625
0.311623
0.311622
0.311621
0.311621
0.311621
0.311621
0.311621
0.311621
0.311621
0.311621
0.311621
0.311621
0.311621
0.311621
0.311621
0.311621
0.311621
0.311621
0.311621
0.311621
0.311621
0.311621
0.311621
0.311621
0.311621
0.311621
0.311621
0.311621
0.311621
0.311621
0.311621
0.311621
0.311621
0.311621
0.311621
0.311621
0.311621
0.311621
0.311621
0.31162
0.31162
0.31162
0.31162
0.31162
0.31162
0.31162
0.31162
0.31162
0.31162
0.31162
0.311621
0.311621
0.311624
0.311627
0.311635
0.311635
1
-1
-0.890155
-0.775928
-0.678686
-0.600315
-0.539058
-0.492139
-0.456612
-0.429788
-0.409424
-0.393769
-0.381517
-0.371723
-0.363721
-0.357042
-0.351361
-0.346447
-0.342138
-0.338317
-0.334899
-0.331821
-0.329036
-0.326511
-0.324224
-0.322162
-0.320315
-0.318682
-0.317258
-0.316038
-0.315015
-0.314176
-0.313503
-0.312978
-0.312578
-0.312281
-0.312066
-0.311914
-0.31181
-0.31174
-0.311694
-0.311665
-0.311647
-0.311636
-0.311629
-0.311625
-0.311623
-0.311622
-0.311621
-0.311621
-0.311621
-0.311621
-0.311621
-0.311621
-0.311621
-0.311621
-0.311621
-0.311621
-0.311621
-0.311621
-0.311621
-0.311621
-0.311621
-0.311621
-0.311621
-0.311621
-0.311621
-0.311621
-0.311621
-0.311621
-0.311621
-0.311621
-0.311621
-0.311621
-0.311621
-0.311621
-0.311621
-0.311621
-0.311621
-0.311621
-0.311621
-0.311621
-0.311621
-0.311621
-0.311621
-0.31162
-0.31162
-0.31162
-0.31162
-0.31162
-0.31162
-0.31162
-0.31162
-0.31162
-0.31162
-0.31162
-0.311621
-0.311621
-0.311624
-0.311627
-0.311635
-0.311635
-1
