# vtk DataFile Version 2.0
FlowField
ASCII
DATASET STRUCTURED_GRID
DIMENSIONS 102 1 12 
POINTS 1224 double
0 0 0
0.4 0 0
0.8 0 0
1.2 0 0
1.6 0 0
2 0 0
2.4 0 0
2.8 0 0
3.2 0 0
3.6 0 0
4 0 0
4.4 0 0
4.8 0 0
5.2 0 0
5.6 0 0
6 0 0
6.4 0 0
6.8 0 0
7.2 0 0
7.6 0 0
8 0 0
8.4 0 0
8.8 0 0
9.2 0 0
9.6 0 0
10 0 0
10.4 0 0
10.8 0 0
11.2 0 0
11.6 0 0
12 0 0
12.4 0 0
12.8 0 0
13.2 0 0
13.6 0 0
14 0 0
14.4 0 0
14.8 0 0
15.2 0 0
15.6 0 0
16 0 0
16.4 0 0
16.8 0 0
17.2 0 0
17.6 0 0
18 0 0
18.4 0 0
18.8 0 0
19.2 0 0
19.6 0 0
20 0 0
20.4 0 0
20.8 0 0
21.2 0 0
21.6 0 0
22 0 0
22.4 0 0
22.8 0 0
23.2 0 0
23.6 0 0
24 0 0
24.4 0 0
24.8 0 0
25.2 0 0
25.6 0 0
26 0 0
26.4 0 0
26.8 0 0
27.2 0 0
27.6 0 0
28 0 0
28.4 0 0
28.8 0 0
29.2 0 0
29.6 0 0
30 0 0
30.4 0 0
30.8 0 0
31.2 0 0
31.6 0 0
32 0 0
32.4 0 0
32.8 0 0
33.2 0 0
33.6 0 0
34 0 0
34.4 0 0
34.8 0 0
35.2 0 0
35.6 0 0
36 0 0
36.4 0 0
36.8 0 0
37.2 0 0
37.6 0 0
38 0 0
38.4 0 0
38.8 0 0
39.2 0 0
39.6 0 0
40 0 0
40.4 0 0
0 0.1 0
0.4 0.1 0
0.8 0.1 0
1.2 0.1 0
1.6 0.1 0
2 0.1 0
2.4 0.1 0
2.8 0.1 0
3.2 0.1 0
3.6 0.1 0
4 0.1 0
4.4 0.1 0
4.8 0.1 0
5.2 0.1 0
5.6 0.1 0
6 0.1 0
6.4 0.1 0
6.8 0.1 0
7.2 0.1 0
7.6 0.1 0
8 0.1 0
8.4 0.1 0
8.8 0.1 0
9.2 0.1 0
9.6 0.1 0
10 0.1 0
10.4 0.1 0
10.8 0.1 0
11.2 0.1 0
11.6 0.1 0
12 0.1 0
12.4 0.1 0
12.8 0.1 0
13.2 0.1 0
13.6 0.1 0
14 0.1 0
14.4 0.1 0
14.8 0.1 0
15.2 0.1 0
15.6 0.1 0
16 0.1 0
16.4 0.1 0
16.8 0.1 0
17.2 0.1 0
17.6 0.1 0
18 0.1 0
18.4 0.1 0
18.8 0.1 0
19.2 0.1 0
19.6 0.1 0
20 0.1 0
20.4 0.1 0
20.8 0.1 0
21.2 0.1 0
21.6 0.1 0
22 0.1 0
22.4 0.1 0
22.8 0.1 0
23.2 0.1 0
23.6 0.1 0
24 0.1 0
24.4 0.1 0
24.8 0.1 0
25.2 0.1 0
25.6 0.1 0
26 0.1 0
26.4 0.1 0
26.8 0.1 0
27.2 0.1 0
27.6 0.1 0
28 0.1 0
28.4 0.1 0
28.8 0.1 0
29.2 0.1 0
29.6 0.1 0
30 0.1 0
30.4 0.1 0
30.8 0.1 0
31.2 0.1 0
31.6 0.1 0
32 0.1 0
32.4 0.1 0
32.8 0.1 0
33.2 0.1 0
33.6 0.1 0
34 0.1 0
34.4 0.1 0
34.8 0.1 0
35.2 0.1 0
35.6 0.1 0
36 0.1 0
36.4 0.1 0
36.8 0.1 0
37.2 0.1 0
37.6 0.1 0
38 0.1 0
38.4 0.1 0
38.8 0.1 0
39.2 0.1 0
39.6 0.1 0
40 0.1 0
40.4 0.1 0
0 0.2 0
0.4 0.2 0
0.8 0.2 0
1.2 0.2 0
1.6 0.2 0
2 0.2 0
2.4 0.2 0
2.8 0.2 0
3.2 0.2 0
3.6 0.2 0
4 0.2 0
4.4 0.2 0
4.8 0.2 0
5.2 0.2 0
5.6 0.2 0
6 0.2 0
6.4 0.2 0
6.8 0.2 0
7.2 0.2 0
7.6 0.2 0
8 0.2 0
8.4 0.2 0
8.8 0.2 0
9.2 0.2 0
9.6 0.2 0
10 0.2 0
10.4 0.2 0
10.8 0.2 0
11.2 0.2 0
11.6 0.2 0
12 0.2 0
12.4 0.2 0
12.8 0.2 0
13.2 0.2 0
13.6 0.2 0
14 0.2 0
14.4 0.2 0
14.8 0.2 0
15.2 0.2 0
15.6 0.2 0
16 0.2 0
16.4 0.2 0
16.8 0.2 0
17.2 0.2 0
17.6 0.2 0
18 0.2 0
18.4 0.2 0
18.8 0.2 0
19.2 0.2 0
19.6 0.2 0
20 0.2 0
20.4 0.2 0
20.8 0.2 0
21.2 0.2 0
21.6 0.2 0
22 0.2 0
22.4 0.2 0
22.8 0.2 0
23.2 0.2 0
23.6 0.2 0
24 0.2 0
24.4 0.2 0
24.8 0.2 0
25.2 0.2 0
25.6 0.2 0
26 0.2 0
26.4 0.2 0
26.8 0.2 0
27.2 0.2 0
27.6 0.2 0
28 0.2 0
28.4 0.2 0
28.8 0.2 0
29.2 0.2 0
29.6 0.2 0
30 0.2 0
30.4 0.2 0
30.8 0.2 0
31.2 0.2 0
31.6 0.2 0
32 0.2 0
32.4 0.2 0
32.8 0.2 0
33.2 0.2 0
33.6 0.2 0
34 0.2 0
34.4 0.2 0
34.8 0.2 0
35.2 0.2 0
35.6 0.2 0
36 0.2 0
36.4 0.2 0
36.8 0.2 0
37.2 0.2 0
37.6 0.2 0
38 0.2 0
38.4 0.2 0
38.8 0.2 0
39.2 0.2 0
39.6 0.2 0
40 0.2 0
40.4 0.2 0
0 0.3 0
0.4 0.3 0
0.8 0.3 0
1.2 0.3 0
1.6 0.3 0
2 0.3 0
2.4 0.3 0
2.8 0.3 0
3.2 0.3 0
3.6 0.3 0
4 0.3 0
4.4 0.3 0
4.8 0.3 0
5.2 0.3 0
5.6 0.3 0
6 0.3 0
6.4 0.3 0
6.8 0.3 0
7.2 0.3 0
7.6 0.3 0
8 0.3 0
8.4 0.3 0
8.8 0.3 0
9.2 0.3 0
9.6 0.3 0
10 0.3 0
10.4 0.3 0
10.8 0.3 0
11.2 0.3 0
11.6 0.3 0
12 0.3 0
12.4 0.3 0
12.8 0.3 0
13.2 0.3 0
13.6 0.3 0
14 0.3 0
14.4 0.3 0
14.8 0.3 0
15.2 0.3 0
15.6 0.3 0
16 0.3 0
16.4 0.3 0
16.8 0.3 0
17.2 0.3 0
17.6 0.3 0
18 0.3 0
18.4 0.3 0
18.8 0.3 0
19.2 0.3 0
19.6 0.3 0
20 0.3 0
20.4 0.3 0
20.8 0.3 0
21.2 0.3 0
21.6 0.3 0
22 0.3 0
22.4 0.3 0
22.8 0.3 0
23.2 0.3 0
23.6 0.3 0
24 0.3 0
24.4 0.3 0
24.8 0.3 0
25.2 0.3 0
25.6 0.3 0
26 0.3 0
26.4 0.3 0
26.8 0.3 0
27.2 0.3 0
27.6 0.3 0
28 0.3 0
28.4 0.3 0
28.8 0.3 0
29.2 0.3 0
29.6 0.3 0
30 0.3 0
30.4 0.3 0
30.8 0.3 0
31.2 0.3 0
31.6 0.3 0
32 0.3 0
32.4 0.3 0
32.8 0.3 0
33.2 0.3 0
33.6 0.3 0
34 0.3 0
34.4 0.3 0
34.8 0.3 0
35.2 0.3 0
35.6 0.3 0
36 0.3 0
36.4 0.3 0
36.8 0.3 0
37.2 0.3 0
37.6 0.3 0
38 0.3 0
38.4 0.3 0
38.8 0.3 0
39.2 0.3 0
39.6 0.3 0
40 0.3 0
40.4 0.3 0
0 0.4 0
0.4 0.4 0
0.8 0.4 0
1.2 0.4 0
1.6 0.4 0
2 0.4 0
2.4 0.4 0
2.8 0.4 0
3.2 0.4 0
3.6 0.4 0
4 0.4 0
4.4 0.4 0
4.8 0.4 0
5.2 0.4 0
5.6 0.4 0
6 0.4 0
6.4 0.4 0
6.8 0.4 0
7.2 0.4 0
7.6 0.4 0
8 0.4 0
8.4 0.4 0
8.8 0.4 0
9.2 0.4 0
9.6 0.4 0
10 0.4 0
10.4 0.4 0
10.8 0.4 0
11.2 0.4 0
11.6 0.4 0
12 0.4 0
12.4 0.4 0
12.8 0.4 0
13.2 0.4 0
13.6 0.4 0
14 0.4 0
14.4 0.4 0
14.8 0.4 0
15.2 0.4 0
15.6 0.4 0
16 0.4 0
16.4 0.4 0
16.8 0.4 0
17.2 0.4 0
17.6 0.4 0
18 0.4 0
18.4 0.4 0
18.8 0.4 0
19.2 0.4 0
19.6 0.4 0
20 0.4 0
20.4 0.4 0
20.8 0.4 0
21.2 0.4 0
21.6 0.4 0
22 0.4 0
22.4 0.4 0
22.8 0.4 0
23.2 0.4 0
23.6 0.4 0
24 0.4 0
24.4 0.4 0
24.8 0.4 0
25.2 0.4 0
25.6 0.4 0
26 0.4 0
26.4 0.4 0
26.8 0.4 0
27.2 0.4 0
27.6 0.4 0
28 0.4 0
28.4 0.4 0
28.8 0.4 0
29.2 0.4 0
29.6 0.4 0
30 0.4 0
30.4 0.4 0
30.8 0.4 0
31.2 0.4 0
31.6 0.4 0
32 0.4 0
32.4 0.4 0
32.8 0.4 0
33.2 0.4 0
33.6 0.4 0
34 0.4 0
34.4 0.4 0
34.8 0.4 0
35.2 0.4 0
35.6 0.4 0
36 0.4 0
36.4 0.4 0
36.8 0.4 0
37.2 0.4 0
37.6 0.4 0
38 0.4 0
38.4 0.4 0
38.8 0.4 0
39.2 0.4 0
39.6 0.4 0
40 0.4 0
40.4 0.4 0
0 0.5 0
0.4 0.5 0
0.8 0.5 0
1.2 0.5 0
1.6 0.5 0
2 0.5 0
2.4 0.5 0
2.8 0.5 0
3.2 0.5 0
3.6 0.5 0
4 0.5 0
4.4 0.5 0
4.8 0.5 0
5.2 0.5 0
5.6 0.5 0
6 0.5 0
6.4 0.5 0
6.8 0.5 0
7.2 0.5 0
7.6 0.5 0
8 0.5 0
8.4 0.5 0
8.8 0.5 0
9.2 0.5 0
9.6 0.5 0
10 0.5 0
10.4 0.5 0
10.8 0.5 0
11.2 0.5 0
11.6 0.5 0
12 0.5 0
12.4 0.5 0
12.8 0.5 0
13.2 0.5 0
13.6 0.5 0
14 0.5 0
14.4 0.5 0
14.8 0.5 0
15.2 0.5 0
15.6 0.5 0
16 0.5 0
16.4 0.5 0
16.8 0.5 0
17.2 0.5 0
17.6 0.5 0
18 0.5 0
18.4 0.5 0
18.8 0.5 0
19.2 0.5 0
19.6 0.5 0
20 0.5 0
20.4 0.5 0
20.8 0.5 0
21.2 0.5 0
21.6 0.5 0
22 0.5 0
22.4 0.5 0
22.8 0.5 0
23.2 0.5 0
23.6 0.5 0
24 0.5 0
24.4 0.5 0
24.8 0.5 0
25.2 0.5 0
25.6 0.5 0
26 0.5 0
26.4 0.5 0
26.8 0.5 0
27.2 0.5 0
27.6 0.5 0
28 0.5 0
28.4 0.5 0
28.8 0.5 0
29.2 0.5 0
29.6 0.5 0
30 0.5 0
30.4 0.5 0
30.8 0.5 0
31.2 0.5 0
31.6 0.5 0
32 0.5 0
32.4 0.5 0
32.8 0.5 0
33.2 0.5 0
33.6 0.5 0
34 0.5 0
34.4 0.5 0
34.8 0.5 0
35.2 0.5 0
35.6 0.5 0
36 0.5 0
36.4 0.5 0
36.8 0.5 0
37.2 0.5 0
37.6 0.5 0
38 0.5 0
38.4 0.5 0
38.8 0.5 0
39.2 0.5 0
39.6 0.5 0
40 0.5 0
40.4 0.5 0
0 0.6 0
0.4 0.6 0
0.8 0.6 0
1.2 0.6 0
1.6 0.6 0
2 0.6 0
2.4 0.6 0
2.8 0.6 0
3.2 0.6 0
3.6 0.6 0
4 0.6 0
4.4 0.6 0
4.8 0.6 0
5.2 0.6 0
5.6 0.6 0
6 0.6 0
6.4 0.6 0
6.8 0.6 0
7.2 0.6 0
7.6 0.6 0
8 0.6 0
8.4 0.6 0
8.8 0.6 0
9.2 0.6 0
9.6 0.6 0
10 0.6 0
10.4 0.6 0
10.8 0.6 0
11.2 0.6 0
11.6 0.6 0
12 0.6 0
12.4 0.6 0
12.8 0.6 0
13.2 0.6 0
13.6 0.6 0
14 0.6 0
14.4 0.6 0
14.8 0.6 0
15.2 0.6 0
15.6 0.6 0
16 0.6 0
16.4 0.6 0
16.8 0.6 0
17.2 0.6 0
17.6 0.6 0
18 0.6 0
18.4 0.6 0
18.8 0.6 0
19.2 0.6 0
19.6 0.6 0
20 0.6 0
20.4 0.6 0
20.8 0.6 0
21.2 0.6 0
21.6 0.6 0
22 0.6 0
22.4 0.6 0
22.8 0.6 0
23.2 0.6 0
23.6 0.6 0
24 0.6 0
24.4 0.6 0
24.8 0.6 0
25.2 0.6 0
25.6 0.6 0
26 0.6 0
26.4 0.6 0
26.8 0.6 0
27.2 0.6 0
27.6 0.6 0
28 0.6 0
28.4 0.6 0
28.8 0.6 0
29.2 0.6 0
29.6 0.6 0
30 0.6 0
30.4 0.6 0
30.8 0.6 0
31.2 0.6 0
31.6 0.6 0
32 0.6 0
32.4 0.6 0
32.8 0.6 0
33.2 0.6 0
33.6 0.6 0
34 0.6 0
34.4 0.6 0
34.8 0.6 0
35.2 0.6 0
35.6 0.6 0
36 0.6 0
36.4 0.6 0
36.8 0.6 0
37.2 0.6 0
37.6 0.6 0
38 0.6 0
38.4 0.6 0
38.8 0.6 0
39.2 0.6 0
39.6 0.6 0
40 0.6 0
40.4 0.6 0
0 0.7 0
0.4 0.7 0
0.8 0.7 0
1.2 0.7 0
1.6 0.7 0
2 0.7 0
2.4 0.7 0
2.8 0.7 0
3.2 0.7 0
3.6 0.7 0
4 0.7 0
4.4 0.7 0
4.8 0.7 0
5.2 0.7 0
5.6 0.7 0
6 0.7 0
6.4 0.7 0
6.8 0.7 0
7.2 0.7 0
7.6 0.7 0
8 0.7 0
8.4 0.7 0
8.8 0.7 0
9.2 0.7 0
9.6 0.7 0
10 0.7 0
10.4 0.7 0
10.8 0.7 0
11.2 0.7 0
11.6 0.7 0
12 0.7 0
12.4 0.7 0
12.8 0.7 0
13.2 0.7 0
13.6 0.7 0
14 0.7 0
14.4 0.7 0
14.8 0.7 0
15.2 0.7 0
15.6 0.7 0
16 0.7 0
16.4 0.7 0
16.8 0.7 0
17.2 0.7 0
17.6 0.7 0
18 0.7 0
18.4 0.7 0
18.8 0.7 0
19.2 0.7 0
19.6 0.7 0
20 0.7 0
20.4 0.7 0
20.8 0.7 0
21.2 0.7 0
21.6 0.7 0
22 0.7 0
22.4 0.7 0
22.8 0.7 0
23.2 0.7 0
23.6 0.7 0
24 0.7 0
24.4 0.7 0
24.8 0.7 0
25.2 0.7 0
25.6 0.7 0
26 0.7 0
26.4 0.7 0
26.8 0.7 0
27.2 0.7 0
27.6 0.7 0
28 0.7 0
28.4 0.7 0
28.8 0.7 0
29.2 0.7 0
29.6 0.7 0
30 0.7 0
30.4 0.7 0
30.8 0.7 0
31.2 0.7 0
31.6 0.7 0
32 0.7 0
32.4 0.7 0
32.8 0.7 0
33.2 0.7 0
33.6 0.7 0
34 0.7 0
34.4 0.7 0
34.8 0.7 0
35.2 0.7 0
35.6 0.7 0
36 0.7 0
36.4 0.7 0
36.8 0.7 0
37.2 0.7 0
37.6 0.7 0
38 0.7 0
38.4 0.7 0
38.8 0.7 0
39.2 0.7 0
39.6 0.7 0
40 0.7 0
40.4 0.7 0
0 0.8 0
0.4 0.8 0
0.8 0.8 0
1.2 0.8 0
1.6 0.8 0
2 0.8 0
2.4 0.8 0
2.8 0.8 0
3.2 0.8 0
3.6 0.8 0
4 0.8 0
4.4 0.8 0
4.8 0.8 0
5.2 0.8 0
5.6 0.8 0
6 0.8 0
6.4 0.8 0
6.8 0.8 0
7.2 0.8 0
7.6 0.8 0
8 0.8 0
8.4 0.8 0
8.8 0.8 0
9.2 0.8 0
9.6 0.8 0
10 0.8 0
10.4 0.8 0
10.8 0.8 0
11.2 0.8 0
11.6 0.8 0
12 0.8 0
12.4 0.8 0
12.8 0.8 0
13.2 0.8 0
13.6 0.8 0
14 0.8 0
14.4 0.8 0
14.8 0.8 0
15.2 0.8 0
15.6 0.8 0
16 0.8 0
16.4 0.8 0
16.8 0.8 0
17.2 0.8 0
17.6 0.8 0
18 0.8 0
18.4 0.8 0
18.8 0.8 0
19.2 0.8 0
19.6 0.8 0
20 0.8 0
20.4 0.8 0
20.8 0.8 0
21.2 0.8 0
21.6 0.8 0
22 0.8 0
22.4 0.8 0
22.8 0.8 0
23.2 0.8 0
23.6 0.8 0
24 0.8 0
24.4 0.8 0
24.8 0.8 0
25.2 0.8 0
25.6 0.8 0
26 0.8 0
26.4 0.8 0
26.8 0.8 0
27.2 0.8 0
27.6 0.8 0
28 0.8 0
28.4 0.8 0
28.8 0.8 0
29.2 0.8 0
29.6 0.8 0
30 0.8 0
30.4 0.8 0
30.8 0.8 0
31.2 0.8 0
31.6 0.8 0
32 0.8 0
32.4 0.8 0
32.8 0.8 0
33.2 0.8 0
33.6 0.8 0
34 0.8 0
34.4 0.8 0
34.8 0.8 0
35.2 0.8 0
35.6 0.8 0
36 0.8 0
36.4 0.8 0
36.8 0.8 0
37.2 0.8 0
37.6 0.8 0
38 0.8 0
38.4 0.8 0
38.8 0.8 0
39.2 0.8 0
39.6 0.8 0
40 0.8 0
40.4 0.8 0
0 0.9 0
0.4 0.9 0
0.8 0.9 0
1.2 0.9 0
1.6 0.9 0
2 0.9 0
2.4 0.9 0
2.8 0.9 0
3.2 0.9 0
3.6 0.9 0
4 0.9 0
4.4 0.9 0
4.8 0.9 0
5.2 0.9 0
5.6 0.9 0
6 0.9 0
6.4 0.9 0
6.8 0.9 0
7.2 0.9 0
7.6 0.9 0
8 0.9 0
8.4 0.9 0
8.8 0.9 0
9.2 0.9 0
9.6 0.9 0
10 0.9 0
10.4 0.9 0
10.8 0.9 0
11.2 0.9 0
11.6 0.9 0
12 0.9 0
12.4 0.9 0
12.8 0.9 0
13.2 0.9 0
13.6 0.9 0
14 0.9 0
14.4 0.9 0
14.8 0.9 0
15.2 0.9 0
15.6 0.9 0
16 0.9 0
16.4 0.9 0
16.8 0.9 0
17.2 0.9 0
17.6 0.9 0
18 0.9 0
18.4 0.9 0
18.8 0.9 0
19.2 0.9 0
19.6 0.9 0
20 0.9 0
20.4 0.9 0
20.8 0.9 0
21.2 0.9 0
21.6 0.9 0
22 0.9 0
22.4 0.9 0
22.8 0.9 0
23.2 0.9 0
23.6 0.9 0
24 0.9 0
24.4 0.9 0
24.8 0.9 0
25.2 0.9 0
25.6 0.9 0
26 0.9 0
26.4 0.9 0
26.8 0.9 0
27.2 0.9 0
27.6 0.9 0
28 0.9 0
28.4 0.9 0
28.8 0.9 0
29.2 0.9 0
29.6 0.9 0
30 0.9 0
30.4 0.9 0
30.8 0.9 0
31.2 0.9 0
31.6 0.9 0
32 0.9 0
32.4 0.9 0
32.8 0.9 0
33.2 0.9 0
33.6 0.9 0
34 0.9 0
34.4 0.9 0
34.8 0.9 0
35.2 0.9 0
35.6 0.9 0
36 0.9 0
36.4 0.9 0
36.8 0.9 0
37.2 0.9 0
37.6 0.9 0
38 0.9 0
38.4 0.9 0
38.8 0.9 0
39.2 0.9 0
39.6 0.9 0
40 0.9 0
40.4 0.9 0
0 1 0
0.4 1 0
0.8 1 0
1.2 1 0
1.6 1 0
2 1 0
2.4 1 0
2.8 1 0
3.2 1 0
3.6 1 0
4 1 0
4.4 1 0
4.8 1 0
5.2 1 0
5.6 1 0
6 1 0
6.4 1 0
6.8 1 0
7.2 1 0
7.6 1 0
8 1 0
8.4 1 0
8.8 1 0
9.2 1 0
9.6 1 0
10 1 0
10.4 1 0
10.8 1 0
11.2 1 0
11.6 1 0
12 1 0
12.4 1 0
12.8 1 0
13.2 1 0
13.6 1 0
14 1 0
14.4 1 0
14.8 1 0
15.2 1 0
15.6 1 0
16 1 0
16.4 1 0
16.8 1 0
17.2 1 0
17.6 1 0
18 1 0
18.4 1 0
18.8 1 0
19.2 1 0
19.6 1 0
20 1 0
20.4 1 0
20.8 1 0
21.2 1 0
21.6 1 0
22 1 0
22.4 1 0
22.8 1 0
23.2 1 0
23.6 1 0
24 1 0
24.4 1 0
24.8 1 0
25.2 1 0
25.6 1 0
26 1 0
26.4 1 0
26.8 1 0
27.2 1 0
27.6 1 0
28 1 0
28.4 1 0
28.8 1 0
29.2 1 0
29.6 1 0
30 1 0
30.4 1 0
30.8 1 0
31.2 1 0
31.6 1 0
32 1 0
32.4 1 0
32.8 1 0
33.2 1 0
33.6 1 0
34 1 0
34.4 1 0
34.8 1 0
35.2 1 0
35.6 1 0
36 1 0
36.4 1 0
36.8 1 0
37.2 1 0
37.6 1 0
38 1 0
38.4 1 0
38.8 1 0
39.2 1 0
39.6 1 0
40 1 0
40.4 1 0
0 1.1 0
0.4 1.1 0
0.8 1.1 0
1.2 1.1 0
1.6 1.1 0
2 1.1 0
2.4 1.1 0
2.8 1.1 0
3.2 1.1 0
3.6 1.1 0
4 1.1 0
4.4 1.1 0
4.8 1.1 0
5.2 1.1 0
5.6 1.1 0
6 1.1 0
6.4 1.1 0
6.8 1.1 0
7.2 1.1 0
7.6 1.1 0
8 1.1 0
8.4 1.1 0
8.8 1.1 0
9.2 1.1 0
9.6 1.1 0
10 1.1 0
10.4 1.1 0
10.8 1.1 0
11.2 1.1 0
11.6 1.1 0
12 1.1 0
12.4 1.1 0
12.8 1.1 0
13.2 1.1 0
13.6 1.1 0
14 1.1 0
14.4 1.1 0
14.8 1.1 0
15.2 1.1 0
15.6 1.1 0
16 1.1 0
16.4 1.1 0
16.8 1.1 0
17.2 1.1 0
17.6 1.1 0
18 1.1 0
18.4 1.1 0
18.8 1.1 0
19.2 1.1 0
19.6 1.1 0
20 1.1 0
20.4 1.1 0
20.8 1.1 0
21.2 1.1 0
21.6 1.1 0
22 1.1 0
22.4 1.1 0
22.8 1.1 0
23.2 1.1 0
23.6 1.1 0
24 1.1 0
24.4 1.1 0
24.8 1.1 0
25.2 1.1 0
25.6 1.1 0
26 1.1 0
26.4 1.1 0
26.8 1.1 0
27.2 1.1 0
27.6 1.1 0
28 1.1 0
28.4 1.1 0
28.8 1.1 0
29.2 1.1 0
29.6 1.1 0
30 1.1 0
30.4 1.1 0
30.8 1.1 0
31.2 1.1 0
31.6 1.1 0
32 1.1 0
32.4 1.1 0
32.8 1.1 0
33.2 1.1 0
33.6 1.1 0
34 1.1 0
34.4 1.1 0
34.8 1.1 0
35.2 1.1 0
35.6 1.1 0
36 1.1 0
36.4 1.1 0
36.8 1.1 0
37.2 1.1 0
37.6 1.1 0
38 1.1 0
38.4 1.1 0
38.8 1.1 0
39.2 1.1 0
39.6 1.1 0
40 1.1 0
40.4 1.1 0

POINT_DATA 1224

SCALARS v double
LOOKUP_TABLE default
0
0
0
0
0
0
0
0
0
0
0
0
0
0
0
0
0
0
0
0
0
0
0
0
0
0
0
0
0
0
0
0
0
0
0
0
0
0
0
0
0
0
0
0
0
0
0
0
0
0
0
0
0
0
0
0
0
0
0
0
0
0
0
0
0
0
0
0
0
0
0
0
0
0
0
0
0
0
0
0
0
0
0
0
0
0
0
0
0
0
0
0
0
0
0
0
0
0
0
0
0
0
0
0.0787055
0.0554388
0.0327379
0.0178346
0.00954221
0.00518331
0.00283073
0.00150041
0.000744575
0.000336523
0.000135353
4.70239e-05
1.3257e-05
2.44753e-06
-1.38521e-07
-3.56586e-07
-1.79949e-07
-4.40182e-08
2.39326e-08
5.5881e-08
6.79414e-08
7.16503e-08
7.22825e-08
7.18072e-08
7.09445e-08
6.99426e-08
6.88806e-08
6.77826e-08
6.66555e-08
6.55018e-08
6.43228e-08
6.31201e-08
6.18955e-08
6.06496e-08
5.93821e-08
5.80918e-08
5.67766e-08
5.54365e-08
5.40743e-08
5.2695e-08
5.1304e-08
4.99044e-08
4.84974e-08
4.70828e-08
4.56604e-08
4.42301e-08
4.27921e-08
4.13465e-08
3.98936e-08
3.84342e-08
3.69694e-08
3.55006e-08
3.40295e-08
3.25579e-08
3.10884e-08
2.96233e-08
2.81635e-08
2.67092e-08
2.52606e-08
2.3818e-08
2.23818e-08
2.09528e-08
1.95321e-08
1.8121e-08
1.67207e-08
1.53327e-08
1.39595e-08
1.26026e-08
1.12634e-08
9.94409e-09
8.64609e-09
7.37093e-09
6.12012e-09
4.89557e-09
3.69943e-09
2.53293e-09
1.3991e-09
3.01316e-10
-7.46044e-10
-1.75187e-09
-2.71899e-09
-3.64598e-09
-4.53132e-09
-5.37357e-09
-6.17146e-09
-6.92399e-09
-7.63088e-09
-8.29167e-09
-8.91746e-09
-9.46433e-09
-1.03047e-08
-9.61046e-09
-1.90526e-08
1.28281e-08
-2.05623e-07
4.05316e-07
-3.37289e-06
2.27379e-06
-3.56518e-05
-6.14152e-05
-6.14152e-05
0
0.0668359
0.0608352
0.0423549
0.0271693
0.0171925
0.0108248
0.00659935
0.0037689
0.00196686
0.000921704
0.000381435
0.000135796
3.91298e-05
7.31689e-06
-5.62699e-07
-1.31412e-06
-7.73066e-07
-3.22621e-07
-9.17581e-08
3.54022e-09
4.04594e-08
5.36435e-08
5.75336e-08
5.80826e-08
5.75123e-08
5.65833e-08
5.55349e-08
5.4437e-08
5.33089e-08
5.2155e-08
5.09774e-08
4.97783e-08
4.85602e-08
4.73237e-08
4.60662e-08
4.47817e-08
4.3463e-08
4.21056e-08
4.07129e-08
3.92961e-08
3.7868e-08
3.64382e-08
3.50107e-08
3.35851e-08
3.21599e-08
3.07336e-08
2.93044e-08
2.78698e-08
2.64283e-08
2.49798e-08
2.35258e-08
2.20689e-08
2.06116e-08
1.91573e-08
1.77105e-08
1.62745e-08
1.48506e-08
1.34381e-08
1.2036e-08
1.06429e-08
9.25786e-09
7.88115e-09
6.51345e-09
5.15558e-09
3.80887e-09
2.47444e-09
1.15553e-09
-1.39214e-10
-1.39908e-09
-2.6342e-09
-3.84468e-09
-5.02947e-09
-6.1874e-09
-7.31682e-09
-8.41603e-09
-9.48296e-09
-1.05157e-08
-1.15124e-08
-1.24727e-08
-1.33938e-08
-1.42739e-08
-1.51116e-08
-1.59054e-08
-1.66543e-08
-1.73573e-08
-1.80141e-08
-1.86259e-08
-1.91935e-08
-1.97444e-08
-2.01759e-08
-2.13337e-08
-1.90382e-08
-3.88201e-08
3.31382e-08
-4.20396e-07
9.18483e-07
-6.99071e-06
8.18501e-06
-0.000113554
-0.000159738
-0.000159738
0
0.0434541
0.0450365
0.0343231
0.0239405
0.0164073
0.0110688
0.00713633
0.00426627
0.00231589
0.00112489
0.000481647
0.000177297
5.28439e-05
1.02326e-05
-8.57222e-07
-2.11263e-06
-1.3491e-06
-6.3077e-07
-2.33645e-07
-5.62795e-08
1.26828e-08
3.76488e-08
4.57245e-08
4.7688e-08
4.7609e-08
4.689e-08
4.59753e-08
4.49952e-08
4.39851e-08
4.29534e-08
4.19026e-08
4.08353e-08
3.97546e-08
3.86608e-08
3.75498e-08
3.64121e-08
3.5235e-08
3.40083e-08
3.27331e-08
3.1423e-08
3.00975e-08
2.87736e-08
2.74606e-08
2.61607e-08
2.48728e-08
2.35946e-08
2.23222e-08
2.10503e-08
1.97745e-08
1.84931e-08
1.72081e-08
1.5923e-08
1.46405e-08
1.33635e-08
1.20962e-08
1.08424e-08
9.60409e-09
8.38181e-09
7.17466e-09
5.98071e-09
4.79838e-09
3.62716e-09
2.46723e-09
1.31903e-09
1.84421e-10
-9.29253e-10
-2.02461e-09
-3.10085e-09
-4.15652e-09
-5.18799e-09
-6.19388e-09
-7.17347e-09
-8.12613e-09
-9.05066e-09
-9.94567e-09
-1.08091e-08
-1.16391e-08
-1.24338e-08
-1.31923e-08
-1.39122e-08
-1.4592e-08
-1.52307e-08
-1.5827e-08
-1.63804e-08
-1.68903e-08
-1.73571e-08
-1.77835e-08
-1.81704e-08
-1.85592e-08
-1.87938e-08
-2.00516e-08
-1.65744e-08
-4.11371e-08
5.05246e-08
-4.73216e-07
1.16105e-06
-7.92393e-06
1.18137e-05
-0.000141569
-0.000191335
-0.000191335
0
0.0210519
0.0230823
0.0184101
0.0134033
0.00955869
0.00667063
0.00442141
0.00270569
0.00149982
0.00074297
0.000324168
0.000121484
3.67861e-05
7.16139e-06
-7.27985e-07
-1.67247e-06
-1.09758e-06
-5.25001e-07
-1.94244e-07
-4.05209e-08
2.15514e-08
4.4104e-08
5.12427e-08
5.28813e-08
5.2708e-08
5.19759e-08
5.10759e-08
5.01211e-08
4.91409e-08
4.81421e-08
4.71265e-08
4.60966e-08
4.50557e-08
4.40042e-08
4.29377e-08
4.18452e-08
4.071e-08
3.95165e-08
3.82611e-08
3.69566e-08
3.56264e-08
3.42941e-08
3.29757e-08
3.16778e-08
3.04016e-08
2.91449e-08
2.79027e-08
2.6667e-08
2.54305e-08
2.41903e-08
2.29488e-08
2.17101e-08
2.04762e-08
1.92479e-08
1.80265e-08
1.68146e-08
1.56156e-08
1.44329e-08
1.32683e-08
1.21216e-08
1.09921e-08
9.8796e-09
8.78423e-09
7.7061e-09
6.64515e-09
5.60065e-09
4.57456e-09
3.56929e-09
2.58705e-09
1.6312e-09
7.03322e-10
-1.94867e-10
-1.06214e-09
-1.89945e-09
-2.70578e-09
-3.47923e-09
-4.21773e-09
-4.91941e-09
-5.58303e-09
-6.20665e-09
-6.78893e-09
-7.32888e-09
-7.8257e-09
-8.2788e-09
-8.68808e-09
-9.05421e-09
-9.38037e-09
-9.66867e-09
-9.95905e-09
-1.01205e-08
-1.11192e-08
-8.45482e-09
-2.62079e-08
3.86683e-08
-3.09845e-07
8.07689e-07
-5.1321e-06
8.39628e-06
-9.3633e-05
-0.000126193
-0.000126193
0
1.18895e-07
1.89884e-07
2.06038e-07
1.63322e-07
8.4482e-08
1.6057e-08
-1.00185e-08
4.26734e-09
3.36748e-08
5.20354e-08
5.19284e-08
4.42363e-08
4.11673e-08
4.59213e-08
5.68504e-08
6.87101e-08
7.5605e-08
7.85005e-08
7.85953e-08
7.7063e-08
7.50082e-08
7.29539e-08
7.12954e-08
6.99656e-08
6.88165e-08
6.77443e-08
6.66942e-08
6.56421e-08
6.45779e-08
6.34977e-08
6.24005e-08
6.12883e-08
6.01643e-08
5.90295e-08
5.78799e-08
5.67044e-08
5.54846e-08
5.42006e-08
5.28433e-08
5.14233e-08
4.99659e-08
4.84997e-08
4.70462e-08
4.56166e-08
4.42148e-08
4.28394e-08
4.14846e-08
4.01403e-08
3.87971e-08
3.74514e-08
3.61064e-08
3.47668e-08
3.34336e-08
3.2104e-08
3.07754e-08
2.94481e-08
2.81267e-08
2.68185e-08
2.55294e-08
2.42624e-08
2.30186e-08
2.17989e-08
2.06041e-08
1.94344e-08
1.8289e-08
1.71666e-08
1.60681e-08
1.49951e-08
1.39494e-08
1.29337e-08
1.19494e-08
1.09971e-08
1.00773e-08
9.19051e-09
8.33785e-09
7.52119e-09
6.7428e-09
6.00475e-09
5.30862e-09
4.65622e-09
4.04885e-09
3.48754e-09
2.97306e-09
2.50599e-09
2.08641e-09
1.71359e-09
1.38463e-09
1.09478e-09
8.23429e-10
5.81737e-10
1.85409e-10
2.40133e-11
-1.06171e-09
-1.64219e-09
-2.48814e-09
-1.6222e-09
3.31261e-09
7.48546e-09
1.35373e-08
-7.0768e-10
-7.0768e-10
0
-0.0210516
-0.0230819
-0.0184097
-0.0134029
-0.00955852
-0.0066706
-0.00442143
-0.00270567
-0.00149975
-0.00074286
-0.000324057
-0.000121388
-3.66959e-05
-7.06245e-06
8.46871e-07
1.81244e-06
1.24991e-06
6.82436e-07
3.51449e-07
1.94114e-07
1.276e-07
1.01339e-07
9.12486e-08
8.71441e-08
8.50988e-08
8.37115e-08
8.25142e-08
8.13596e-08
8.02034e-08
7.9033e-08
7.78454e-08
7.66419e-08
7.54259e-08
7.41988e-08
7.29576e-08
7.16925e-08
7.03849e-08
6.90127e-08
6.75636e-08
6.60461e-08
6.4486e-08
6.29138e-08
6.13533e-08
5.98178e-08
5.83122e-08
5.68357e-08
5.53817e-08
5.39392e-08
5.24979e-08
5.10549e-08
4.96146e-08
4.81821e-08
4.67569e-08
4.53332e-08
4.39044e-08
4.24694e-08
4.1034e-08
3.96084e-08
3.8202e-08
3.68204e-08
3.54663e-08
3.41416e-08
3.28477e-08
3.15851e-08
3.03526e-08
2.91485e-08
2.79725e-08
2.68257e-08
2.57093e-08
2.46253e-08
2.35749e-08
2.2559e-08
2.15779e-08
2.06323e-08
1.97233e-08
1.88528e-08
1.80232e-08
1.72366e-08
1.64949e-08
1.57998e-08
1.51525e-08
1.4554e-08
1.40054e-08
1.35071e-08
1.30593e-08
1.26615e-08
1.23113e-08
1.20014e-08
1.17341e-08
1.13907e-08
1.16215e-08
8.51716e-09
2.45317e-08
-4.2033e-08
3.0535e-07
-8.11117e-07
5.13813e-06
-8.38214e-06
9.36578e-05
0.000126192
0.000126192
0
-0.0434539
-0.0450361
-0.0343227
-0.0239402
-0.0164071
-0.0110687
-0.00713632
-0.00426623
-0.0023158
-0.00112477
-0.000481517
-0.000177179
-5.27317e-05
-1.01142e-05
9.89446e-07
2.25881e-06
1.50381e-06
7.88844e-07
3.90646e-07
2.09067e-07
1.35341e-07
1.07447e-07
9.71723e-08
9.31411e-08
9.11666e-08
8.98213e-08
8.86492e-08
8.75133e-08
8.63744e-08
8.5222e-08
8.40539e-08
8.28716e-08
8.16785e-08
8.04761e-08
7.92624e-08
7.80301e-08
7.67627e-08
7.54396e-08
7.40495e-08
7.26001e-08
7.11153e-08
6.96223e-08
6.81416e-08
6.6684e-08
6.52531e-08
6.38477e-08
6.24613e-08
6.10834e-08
5.97055e-08
5.83264e-08
5.69521e-08
5.5587e-08
5.42293e-08
5.28713e-08
5.15054e-08
5.01305e-08
4.87532e-08
4.73847e-08
4.60347e-08
4.47089e-08
4.34098e-08
4.21398e-08
4.09006e-08
3.96927e-08
3.85147e-08
3.73652e-08
3.62438e-08
3.51513e-08
3.40885e-08
3.30571e-08
3.20581e-08
3.10922e-08
3.01601e-08
2.92625e-08
2.84005e-08
2.7576e-08
2.67911e-08
2.6048e-08
2.53484e-08
2.46937e-08
2.40851e-08
2.35236e-08
2.30102e-08
2.25453e-08
2.21294e-08
2.17619e-08
2.14412e-08
2.11599e-08
2.09295e-08
2.05925e-08
2.11054e-08
1.69865e-08
4.05653e-08
-5.36816e-08
4.70354e-07
-1.16471e-06
7.92833e-06
-1.18026e-05
0.000141587
0.000191333
0.000191333
0
-0.0668356
-0.0608349
-0.0423546
-0.0271691
-0.0171923
-0.0108247
-0.00659929
-0.00376881
-0.00196673
-0.000921553
-0.000381281
-0.000135649
-3.89864e-05
-7.16945e-06
7.14686e-07
1.46795e-06
9.29646e-07
4.79987e-07
2.47125e-07
1.46692e-07
1.07605e-07
9.31589e-08
8.77529e-08
8.54215e-08
8.40637e-08
8.29895e-08
8.19858e-08
8.09908e-08
7.99872e-08
7.89709e-08
7.79414e-08
7.69004e-08
7.58504e-08
7.47929e-08
7.3727e-08
7.26485e-08
7.15465e-08
7.0407e-08
6.92234e-08
6.8003e-08
6.67631e-08
6.55209e-08
6.42884e-08
6.30708e-08
6.18692e-08
6.06824e-08
5.95054e-08
5.83314e-08
5.71555e-08
5.59792e-08
5.48078e-08
5.36443e-08
5.24862e-08
5.13273e-08
5.01623e-08
4.89914e-08
4.78207e-08
4.66586e-08
4.55116e-08
4.43831e-08
4.32746e-08
4.21881e-08
4.11252e-08
4.00863e-08
3.90707e-08
3.80778e-08
3.71078e-08
3.61615e-08
3.524e-08
3.43444e-08
3.34756e-08
3.26346e-08
3.18221e-08
3.1039e-08
3.02865e-08
2.9566e-08
2.88795e-08
2.82286e-08
2.76147e-08
2.7039e-08
2.65025e-08
2.60061e-08
2.55508e-08
2.51373e-08
2.47658e-08
2.44363e-08
2.41478e-08
2.38954e-08
2.36879e-08
2.34139e-08
2.38013e-08
2.07025e-08
3.97864e-08
-3.50265e-08
4.2095e-07
-9.21831e-07
6.99286e-06
-8.1789e-06
0.000113563
0.000159737
0.000159737
0
-0.0787052
-0.0554385
-0.0327377
-0.0178344
-0.00954207
-0.00518319
-0.0028306
-0.00150027
-0.000744415
-0.000336354
-0.000135183
-4.6856e-05
-1.3088e-05
-2.27355e-06
3.08902e-07
5.166e-07
3.37548e-07
1.97823e-07
1.27129e-07
9.67244e-08
8.46233e-08
7.98039e-08
7.76464e-08
7.63881e-08
7.5406e-08
7.44949e-08
7.35913e-08
7.2677e-08
7.17472e-08
7.08013e-08
6.98398e-08
6.88638e-08
6.78751e-08
6.68744e-08
6.58622e-08
6.48379e-08
6.37981e-08
6.27385e-08
6.1658e-08
6.05604e-08
5.94523e-08
5.83391e-08
5.72245e-08
5.61098e-08
5.49955e-08
5.38817e-08
5.27668e-08
5.16492e-08
5.05281e-08
4.94053e-08
4.82837e-08
4.71642e-08
4.60462e-08
4.49277e-08
4.38076e-08
4.26868e-08
4.15684e-08
4.04559e-08
3.93518e-08
3.82574e-08
3.7174e-08
3.61028e-08
3.50453e-08
3.40022e-08
3.2974e-08
3.19612e-08
3.09649e-08
2.99861e-08
2.90259e-08
2.80854e-08
2.71658e-08
2.62682e-08
2.53937e-08
2.45435e-08
2.37189e-08
2.2921e-08
2.21516e-08
2.14119e-08
2.07031e-08
2.00265e-08
1.93832e-08
1.87744e-08
1.8201e-08
1.7664e-08
1.71643e-08
1.67023e-08
1.62784e-08
1.58908e-08
1.55453e-08
1.5189e-08
1.51898e-08
1.35087e-08
2.27549e-08
-1.19472e-08
2.09908e-07
-4.07105e-07
3.37353e-06
-2.27079e-06
3.56553e-05
6.14156e-05
6.14156e-05
0
0
0
0
0
0
0
0
0
0
0
0
0
0
0
0
0
0
0
0
0
0
0
0
0
0
0
0
0
0
0
0
0
0
0
0
0
0
0
0
0
0
0
0
0
0
0
0
0
0
0
0
0
0
0
0
0
0
0
0
0
0
0
0
0
0
0
0
0
0
0
0
0
0
0
0
0
0
0
0
0
0
0
0
0
0
0
0
0
0
0
0
0
0
0
0
0
0
0
0
0
0
0
0
0
0
0
0
0
0
0
0
0
0
0
0
0
0
0
0
0
0
0
0
0
0
0
0
0
0
0
0
0
0
0
0
0
0
0
0
0
0
0
0
0
0
0
0
0
0
0
0
0
0
0
0
0
0
0
0
0
0
0
0
0
0
0
0
0
0
0
0
0
0
0
0
0
0
0
0
0
0
0
0
0
0
0
0
0
0
0
0
0
0
0
0
0
0
0
0
0
0
0
0
