# vtk DataFile Version 2.0
FlowField
ASCII
DATASET STRUCTURED_GRID
DIMENSIONS 102 1 12 
POINTS 1224 double
0 0 0
0.3 0 0
0.6 0 0
0.9 0 0
1.2 0 0
1.5 0 0
1.8 0 0
2.1 0 0
2.4 0 0
2.7 0 0
3 0 0
3.3 0 0
3.6 0 0
3.9 0 0
4.2 0 0
4.5 0 0
4.8 0 0
5.1 0 0
5.4 0 0
5.7 0 0
6 0 0
6.3 0 0
6.6 0 0
6.9 0 0
7.2 0 0
7.5 0 0
7.8 0 0
8.1 0 0
8.4 0 0
8.7 0 0
9 0 0
9.3 0 0
9.6 0 0
9.9 0 0
10.2 0 0
10.5 0 0
10.8 0 0
11.1 0 0
11.4 0 0
11.7 0 0
12 0 0
12.3 0 0
12.6 0 0
12.9 0 0
13.2 0 0
13.5 0 0
13.8 0 0
14.1 0 0
14.4 0 0
14.7 0 0
15 0 0
15.3 0 0
15.6 0 0
15.9 0 0
16.2 0 0
16.5 0 0
16.8 0 0
17.1 0 0
17.4 0 0
17.7 0 0
18 0 0
18.3 0 0
18.6 0 0
18.9 0 0
19.2 0 0
19.5 0 0
19.8 0 0
20.1 0 0
20.4 0 0
20.7 0 0
21 0 0
21.3 0 0
21.6 0 0
21.9 0 0
22.2 0 0
22.5 0 0
22.8 0 0
23.1 0 0
23.4 0 0
23.7 0 0
24 0 0
24.3 0 0
24.6 0 0
24.9 0 0
25.2 0 0
25.5 0 0
25.8 0 0
26.1 0 0
26.4 0 0
26.7 0 0
27 0 0
27.3 0 0
27.6 0 0
27.9 0 0
28.2 0 0
28.5 0 0
28.8 0 0
29.1 0 0
29.4 0 0
29.7 0 0
30 0 0
30.3 0 0
0 0.1 0
0.3 0.1 0
0.6 0.1 0
0.9 0.1 0
1.2 0.1 0
1.5 0.1 0
1.8 0.1 0
2.1 0.1 0
2.4 0.1 0
2.7 0.1 0
3 0.1 0
3.3 0.1 0
3.6 0.1 0
3.9 0.1 0
4.2 0.1 0
4.5 0.1 0
4.8 0.1 0
5.1 0.1 0
5.4 0.1 0
5.7 0.1 0
6 0.1 0
6.3 0.1 0
6.6 0.1 0
6.9 0.1 0
7.2 0.1 0
7.5 0.1 0
7.8 0.1 0
8.1 0.1 0
8.4 0.1 0
8.7 0.1 0
9 0.1 0
9.3 0.1 0
9.6 0.1 0
9.9 0.1 0
10.2 0.1 0
10.5 0.1 0
10.8 0.1 0
11.1 0.1 0
11.4 0.1 0
11.7 0.1 0
12 0.1 0
12.3 0.1 0
12.6 0.1 0
12.9 0.1 0
13.2 0.1 0
13.5 0.1 0
13.8 0.1 0
14.1 0.1 0
14.4 0.1 0
14.7 0.1 0
15 0.1 0
15.3 0.1 0
15.6 0.1 0
15.9 0.1 0
16.2 0.1 0
16.5 0.1 0
16.8 0.1 0
17.1 0.1 0
17.4 0.1 0
17.7 0.1 0
18 0.1 0
18.3 0.1 0
18.6 0.1 0
18.9 0.1 0
19.2 0.1 0
19.5 0.1 0
19.8 0.1 0
20.1 0.1 0
20.4 0.1 0
20.7 0.1 0
21 0.1 0
21.3 0.1 0
21.6 0.1 0
21.9 0.1 0
22.2 0.1 0
22.5 0.1 0
22.8 0.1 0
23.1 0.1 0
23.4 0.1 0
23.7 0.1 0
24 0.1 0
24.3 0.1 0
24.6 0.1 0
24.9 0.1 0
25.2 0.1 0
25.5 0.1 0
25.8 0.1 0
26.1 0.1 0
26.4 0.1 0
26.7 0.1 0
27 0.1 0
27.3 0.1 0
27.6 0.1 0
27.9 0.1 0
28.2 0.1 0
28.5 0.1 0
28.8 0.1 0
29.1 0.1 0
29.4 0.1 0
29.7 0.1 0
30 0.1 0
30.3 0.1 0
0 0.2 0
0.3 0.2 0
0.6 0.2 0
0.9 0.2 0
1.2 0.2 0
1.5 0.2 0
1.8 0.2 0
2.1 0.2 0
2.4 0.2 0
2.7 0.2 0
3 0.2 0
3.3 0.2 0
3.6 0.2 0
3.9 0.2 0
4.2 0.2 0
4.5 0.2 0
4.8 0.2 0
5.1 0.2 0
5.4 0.2 0
5.7 0.2 0
6 0.2 0
6.3 0.2 0
6.6 0.2 0
6.9 0.2 0
7.2 0.2 0
7.5 0.2 0
7.8 0.2 0
8.1 0.2 0
8.4 0.2 0
8.7 0.2 0
9 0.2 0
9.3 0.2 0
9.6 0.2 0
9.9 0.2 0
10.2 0.2 0
10.5 0.2 0
10.8 0.2 0
11.1 0.2 0
11.4 0.2 0
11.7 0.2 0
12 0.2 0
12.3 0.2 0
12.6 0.2 0
12.9 0.2 0
13.2 0.2 0
13.5 0.2 0
13.8 0.2 0
14.1 0.2 0
14.4 0.2 0
14.7 0.2 0
15 0.2 0
15.3 0.2 0
15.6 0.2 0
15.9 0.2 0
16.2 0.2 0
16.5 0.2 0
16.8 0.2 0
17.1 0.2 0
17.4 0.2 0
17.7 0.2 0
18 0.2 0
18.3 0.2 0
18.6 0.2 0
18.9 0.2 0
19.2 0.2 0
19.5 0.2 0
19.8 0.2 0
20.1 0.2 0
20.4 0.2 0
20.7 0.2 0
21 0.2 0
21.3 0.2 0
21.6 0.2 0
21.9 0.2 0
22.2 0.2 0
22.5 0.2 0
22.8 0.2 0
23.1 0.2 0
23.4 0.2 0
23.7 0.2 0
24 0.2 0
24.3 0.2 0
24.6 0.2 0
24.9 0.2 0
25.2 0.2 0
25.5 0.2 0
25.8 0.2 0
26.1 0.2 0
26.4 0.2 0
26.7 0.2 0
27 0.2 0
27.3 0.2 0
27.6 0.2 0
27.9 0.2 0
28.2 0.2 0
28.5 0.2 0
28.8 0.2 0
29.1 0.2 0
29.4 0.2 0
29.7 0.2 0
30 0.2 0
30.3 0.2 0
0 0.3 0
0.3 0.3 0
0.6 0.3 0
0.9 0.3 0
1.2 0.3 0
1.5 0.3 0
1.8 0.3 0
2.1 0.3 0
2.4 0.3 0
2.7 0.3 0
3 0.3 0
3.3 0.3 0
3.6 0.3 0
3.9 0.3 0
4.2 0.3 0
4.5 0.3 0
4.8 0.3 0
5.1 0.3 0
5.4 0.3 0
5.7 0.3 0
6 0.3 0
6.3 0.3 0
6.6 0.3 0
6.9 0.3 0
7.2 0.3 0
7.5 0.3 0
7.8 0.3 0
8.1 0.3 0
8.4 0.3 0
8.7 0.3 0
9 0.3 0
9.3 0.3 0
9.6 0.3 0
9.9 0.3 0
10.2 0.3 0
10.5 0.3 0
10.8 0.3 0
11.1 0.3 0
11.4 0.3 0
11.7 0.3 0
12 0.3 0
12.3 0.3 0
12.6 0.3 0
12.9 0.3 0
13.2 0.3 0
13.5 0.3 0
13.8 0.3 0
14.1 0.3 0
14.4 0.3 0
14.7 0.3 0
15 0.3 0
15.3 0.3 0
15.6 0.3 0
15.9 0.3 0
16.2 0.3 0
16.5 0.3 0
16.8 0.3 0
17.1 0.3 0
17.4 0.3 0
17.7 0.3 0
18 0.3 0
18.3 0.3 0
18.6 0.3 0
18.9 0.3 0
19.2 0.3 0
19.5 0.3 0
19.8 0.3 0
20.1 0.3 0
20.4 0.3 0
20.7 0.3 0
21 0.3 0
21.3 0.3 0
21.6 0.3 0
21.9 0.3 0
22.2 0.3 0
22.5 0.3 0
22.8 0.3 0
23.1 0.3 0
23.4 0.3 0
23.7 0.3 0
24 0.3 0
24.3 0.3 0
24.6 0.3 0
24.9 0.3 0
25.2 0.3 0
25.5 0.3 0
25.8 0.3 0
26.1 0.3 0
26.4 0.3 0
26.7 0.3 0
27 0.3 0
27.3 0.3 0
27.6 0.3 0
27.9 0.3 0
28.2 0.3 0
28.5 0.3 0
28.8 0.3 0
29.1 0.3 0
29.4 0.3 0
29.7 0.3 0
30 0.3 0
30.3 0.3 0
0 0.4 0
0.3 0.4 0
0.6 0.4 0
0.9 0.4 0
1.2 0.4 0
1.5 0.4 0
1.8 0.4 0
2.1 0.4 0
2.4 0.4 0
2.7 0.4 0
3 0.4 0
3.3 0.4 0
3.6 0.4 0
3.9 0.4 0
4.2 0.4 0
4.5 0.4 0
4.8 0.4 0
5.1 0.4 0
5.4 0.4 0
5.7 0.4 0
6 0.4 0
6.3 0.4 0
6.6 0.4 0
6.9 0.4 0
7.2 0.4 0
7.5 0.4 0
7.8 0.4 0
8.1 0.4 0
8.4 0.4 0
8.7 0.4 0
9 0.4 0
9.3 0.4 0
9.6 0.4 0
9.9 0.4 0
10.2 0.4 0
10.5 0.4 0
10.8 0.4 0
11.1 0.4 0
11.4 0.4 0
11.7 0.4 0
12 0.4 0
12.3 0.4 0
12.6 0.4 0
12.9 0.4 0
13.2 0.4 0
13.5 0.4 0
13.8 0.4 0
14.1 0.4 0
14.4 0.4 0
14.7 0.4 0
15 0.4 0
15.3 0.4 0
15.6 0.4 0
15.9 0.4 0
16.2 0.4 0
16.5 0.4 0
16.8 0.4 0
17.1 0.4 0
17.4 0.4 0
17.7 0.4 0
18 0.4 0
18.3 0.4 0
18.6 0.4 0
18.9 0.4 0
19.2 0.4 0
19.5 0.4 0
19.8 0.4 0
20.1 0.4 0
20.4 0.4 0
20.7 0.4 0
21 0.4 0
21.3 0.4 0
21.6 0.4 0
21.9 0.4 0
22.2 0.4 0
22.5 0.4 0
22.8 0.4 0
23.1 0.4 0
23.4 0.4 0
23.7 0.4 0
24 0.4 0
24.3 0.4 0
24.6 0.4 0
24.9 0.4 0
25.2 0.4 0
25.5 0.4 0
25.8 0.4 0
26.1 0.4 0
26.4 0.4 0
26.7 0.4 0
27 0.4 0
27.3 0.4 0
27.6 0.4 0
27.9 0.4 0
28.2 0.4 0
28.5 0.4 0
28.8 0.4 0
29.1 0.4 0
29.4 0.4 0
29.7 0.4 0
30 0.4 0
30.3 0.4 0
0 0.5 0
0.3 0.5 0
0.6 0.5 0
0.9 0.5 0
1.2 0.5 0
1.5 0.5 0
1.8 0.5 0
2.1 0.5 0
2.4 0.5 0
2.7 0.5 0
3 0.5 0
3.3 0.5 0
3.6 0.5 0
3.9 0.5 0
4.2 0.5 0
4.5 0.5 0
4.8 0.5 0
5.1 0.5 0
5.4 0.5 0
5.7 0.5 0
6 0.5 0
6.3 0.5 0
6.6 0.5 0
6.9 0.5 0
7.2 0.5 0
7.5 0.5 0
7.8 0.5 0
8.1 0.5 0
8.4 0.5 0
8.7 0.5 0
9 0.5 0
9.3 0.5 0
9.6 0.5 0
9.9 0.5 0
10.2 0.5 0
10.5 0.5 0
10.8 0.5 0
11.1 0.5 0
11.4 0.5 0
11.7 0.5 0
12 0.5 0
12.3 0.5 0
12.6 0.5 0
12.9 0.5 0
13.2 0.5 0
13.5 0.5 0
13.8 0.5 0
14.1 0.5 0
14.4 0.5 0
14.7 0.5 0
15 0.5 0
15.3 0.5 0
15.6 0.5 0
15.9 0.5 0
16.2 0.5 0
16.5 0.5 0
16.8 0.5 0
17.1 0.5 0
17.4 0.5 0
17.7 0.5 0
18 0.5 0
18.3 0.5 0
18.6 0.5 0
18.9 0.5 0
19.2 0.5 0
19.5 0.5 0
19.8 0.5 0
20.1 0.5 0
20.4 0.5 0
20.7 0.5 0
21 0.5 0
21.3 0.5 0
21.6 0.5 0
21.9 0.5 0
22.2 0.5 0
22.5 0.5 0
22.8 0.5 0
23.1 0.5 0
23.4 0.5 0
23.7 0.5 0
24 0.5 0
24.3 0.5 0
24.6 0.5 0
24.9 0.5 0
25.2 0.5 0
25.5 0.5 0
25.8 0.5 0
26.1 0.5 0
26.4 0.5 0
26.7 0.5 0
27 0.5 0
27.3 0.5 0
27.6 0.5 0
27.9 0.5 0
28.2 0.5 0
28.5 0.5 0
28.8 0.5 0
29.1 0.5 0
29.4 0.5 0
29.7 0.5 0
30 0.5 0
30.3 0.5 0
0 0.6 0
0.3 0.6 0
0.6 0.6 0
0.9 0.6 0
1.2 0.6 0
1.5 0.6 0
1.8 0.6 0
2.1 0.6 0
2.4 0.6 0
2.7 0.6 0
3 0.6 0
3.3 0.6 0
3.6 0.6 0
3.9 0.6 0
4.2 0.6 0
4.5 0.6 0
4.8 0.6 0
5.1 0.6 0
5.4 0.6 0
5.7 0.6 0
6 0.6 0
6.3 0.6 0
6.6 0.6 0
6.9 0.6 0
7.2 0.6 0
7.5 0.6 0
7.8 0.6 0
8.1 0.6 0
8.4 0.6 0
8.7 0.6 0
9 0.6 0
9.3 0.6 0
9.6 0.6 0
9.9 0.6 0
10.2 0.6 0
10.5 0.6 0
10.8 0.6 0
11.1 0.6 0
11.4 0.6 0
11.7 0.6 0
12 0.6 0
12.3 0.6 0
12.6 0.6 0
12.9 0.6 0
13.2 0.6 0
13.5 0.6 0
13.8 0.6 0
14.1 0.6 0
14.4 0.6 0
14.7 0.6 0
15 0.6 0
15.3 0.6 0
15.6 0.6 0
15.9 0.6 0
16.2 0.6 0
16.5 0.6 0
16.8 0.6 0
17.1 0.6 0
17.4 0.6 0
17.7 0.6 0
18 0.6 0
18.3 0.6 0
18.6 0.6 0
18.9 0.6 0
19.2 0.6 0
19.5 0.6 0
19.8 0.6 0
20.1 0.6 0
20.4 0.6 0
20.7 0.6 0
21 0.6 0
21.3 0.6 0
21.6 0.6 0
21.9 0.6 0
22.2 0.6 0
22.5 0.6 0
22.8 0.6 0
23.1 0.6 0
23.4 0.6 0
23.7 0.6 0
24 0.6 0
24.3 0.6 0
24.6 0.6 0
24.9 0.6 0
25.2 0.6 0
25.5 0.6 0
25.8 0.6 0
26.1 0.6 0
26.4 0.6 0
26.7 0.6 0
27 0.6 0
27.3 0.6 0
27.6 0.6 0
27.9 0.6 0
28.2 0.6 0
28.5 0.6 0
28.8 0.6 0
29.1 0.6 0
29.4 0.6 0
29.7 0.6 0
30 0.6 0
30.3 0.6 0
0 0.7 0
0.3 0.7 0
0.6 0.7 0
0.9 0.7 0
1.2 0.7 0
1.5 0.7 0
1.8 0.7 0
2.1 0.7 0
2.4 0.7 0
2.7 0.7 0
3 0.7 0
3.3 0.7 0
3.6 0.7 0
3.9 0.7 0
4.2 0.7 0
4.5 0.7 0
4.8 0.7 0
5.1 0.7 0
5.4 0.7 0
5.7 0.7 0
6 0.7 0
6.3 0.7 0
6.6 0.7 0
6.9 0.7 0
7.2 0.7 0
7.5 0.7 0
7.8 0.7 0
8.1 0.7 0
8.4 0.7 0
8.7 0.7 0
9 0.7 0
9.3 0.7 0
9.6 0.7 0
9.9 0.7 0
10.2 0.7 0
10.5 0.7 0
10.8 0.7 0
11.1 0.7 0
11.4 0.7 0
11.7 0.7 0
12 0.7 0
12.3 0.7 0
12.6 0.7 0
12.9 0.7 0
13.2 0.7 0
13.5 0.7 0
13.8 0.7 0
14.1 0.7 0
14.4 0.7 0
14.7 0.7 0
15 0.7 0
15.3 0.7 0
15.6 0.7 0
15.9 0.7 0
16.2 0.7 0
16.5 0.7 0
16.8 0.7 0
17.1 0.7 0
17.4 0.7 0
17.7 0.7 0
18 0.7 0
18.3 0.7 0
18.6 0.7 0
18.9 0.7 0
19.2 0.7 0
19.5 0.7 0
19.8 0.7 0
20.1 0.7 0
20.4 0.7 0
20.7 0.7 0
21 0.7 0
21.3 0.7 0
21.6 0.7 0
21.9 0.7 0
22.2 0.7 0
22.5 0.7 0
22.8 0.7 0
23.1 0.7 0
23.4 0.7 0
23.7 0.7 0
24 0.7 0
24.3 0.7 0
24.6 0.7 0
24.9 0.7 0
25.2 0.7 0
25.5 0.7 0
25.8 0.7 0
26.1 0.7 0
26.4 0.7 0
26.7 0.7 0
27 0.7 0
27.3 0.7 0
27.6 0.7 0
27.9 0.7 0
28.2 0.7 0
28.5 0.7 0
28.8 0.7 0
29.1 0.7 0
29.4 0.7 0
29.7 0.7 0
30 0.7 0
30.3 0.7 0
0 0.8 0
0.3 0.8 0
0.6 0.8 0
0.9 0.8 0
1.2 0.8 0
1.5 0.8 0
1.8 0.8 0
2.1 0.8 0
2.4 0.8 0
2.7 0.8 0
3 0.8 0
3.3 0.8 0
3.6 0.8 0
3.9 0.8 0
4.2 0.8 0
4.5 0.8 0
4.8 0.8 0
5.1 0.8 0
5.4 0.8 0
5.7 0.8 0
6 0.8 0
6.3 0.8 0
6.6 0.8 0
6.9 0.8 0
7.2 0.8 0
7.5 0.8 0
7.8 0.8 0
8.1 0.8 0
8.4 0.8 0
8.7 0.8 0
9 0.8 0
9.3 0.8 0
9.6 0.8 0
9.9 0.8 0
10.2 0.8 0
10.5 0.8 0
10.8 0.8 0
11.1 0.8 0
11.4 0.8 0
11.7 0.8 0
12 0.8 0
12.3 0.8 0
12.6 0.8 0
12.9 0.8 0
13.2 0.8 0
13.5 0.8 0
13.8 0.8 0
14.1 0.8 0
14.4 0.8 0
14.7 0.8 0
15 0.8 0
15.3 0.8 0
15.6 0.8 0
15.9 0.8 0
16.2 0.8 0
16.5 0.8 0
16.8 0.8 0
17.1 0.8 0
17.4 0.8 0
17.7 0.8 0
18 0.8 0
18.3 0.8 0
18.6 0.8 0
18.9 0.8 0
19.2 0.8 0
19.5 0.8 0
19.8 0.8 0
20.1 0.8 0
20.4 0.8 0
20.7 0.8 0
21 0.8 0
21.3 0.8 0
21.6 0.8 0
21.9 0.8 0
22.2 0.8 0
22.5 0.8 0
22.8 0.8 0
23.1 0.8 0
23.4 0.8 0
23.7 0.8 0
24 0.8 0
24.3 0.8 0
24.6 0.8 0
24.9 0.8 0
25.2 0.8 0
25.5 0.8 0
25.8 0.8 0
26.1 0.8 0
26.4 0.8 0
26.7 0.8 0
27 0.8 0
27.3 0.8 0
27.6 0.8 0
27.9 0.8 0
28.2 0.8 0
28.5 0.8 0
28.8 0.8 0
29.1 0.8 0
29.4 0.8 0
29.7 0.8 0
30 0.8 0
30.3 0.8 0
0 0.9 0
0.3 0.9 0
0.6 0.9 0
0.9 0.9 0
1.2 0.9 0
1.5 0.9 0
1.8 0.9 0
2.1 0.9 0
2.4 0.9 0
2.7 0.9 0
3 0.9 0
3.3 0.9 0
3.6 0.9 0
3.9 0.9 0
4.2 0.9 0
4.5 0.9 0
4.8 0.9 0
5.1 0.9 0
5.4 0.9 0
5.7 0.9 0
6 0.9 0
6.3 0.9 0
6.6 0.9 0
6.9 0.9 0
7.2 0.9 0
7.5 0.9 0
7.8 0.9 0
8.1 0.9 0
8.4 0.9 0
8.7 0.9 0
9 0.9 0
9.3 0.9 0
9.6 0.9 0
9.9 0.9 0
10.2 0.9 0
10.5 0.9 0
10.8 0.9 0
11.1 0.9 0
11.4 0.9 0
11.7 0.9 0
12 0.9 0
12.3 0.9 0
12.6 0.9 0
12.9 0.9 0
13.2 0.9 0
13.5 0.9 0
13.8 0.9 0
14.1 0.9 0
14.4 0.9 0
14.7 0.9 0
15 0.9 0
15.3 0.9 0
15.6 0.9 0
15.9 0.9 0
16.2 0.9 0
16.5 0.9 0
16.8 0.9 0
17.1 0.9 0
17.4 0.9 0
17.7 0.9 0
18 0.9 0
18.3 0.9 0
18.6 0.9 0
18.9 0.9 0
19.2 0.9 0
19.5 0.9 0
19.8 0.9 0
20.1 0.9 0
20.4 0.9 0
20.7 0.9 0
21 0.9 0
21.3 0.9 0
21.6 0.9 0
21.9 0.9 0
22.2 0.9 0
22.5 0.9 0
22.8 0.9 0
23.1 0.9 0
23.4 0.9 0
23.7 0.9 0
24 0.9 0
24.3 0.9 0
24.6 0.9 0
24.9 0.9 0
25.2 0.9 0
25.5 0.9 0
25.8 0.9 0
26.1 0.9 0
26.4 0.9 0
26.7 0.9 0
27 0.9 0
27.3 0.9 0
27.6 0.9 0
27.9 0.9 0
28.2 0.9 0
28.5 0.9 0
28.8 0.9 0
29.1 0.9 0
29.4 0.9 0
29.7 0.9 0
30 0.9 0
30.3 0.9 0
0 1 0
0.3 1 0
0.6 1 0
0.9 1 0
1.2 1 0
1.5 1 0
1.8 1 0
2.1 1 0
2.4 1 0
2.7 1 0
3 1 0
3.3 1 0
3.6 1 0
3.9 1 0
4.2 1 0
4.5 1 0
4.8 1 0
5.1 1 0
5.4 1 0
5.7 1 0
6 1 0
6.3 1 0
6.6 1 0
6.9 1 0
7.2 1 0
7.5 1 0
7.8 1 0
8.1 1 0
8.4 1 0
8.7 1 0
9 1 0
9.3 1 0
9.6 1 0
9.9 1 0
10.2 1 0
10.5 1 0
10.8 1 0
11.1 1 0
11.4 1 0
11.7 1 0
12 1 0
12.3 1 0
12.6 1 0
12.9 1 0
13.2 1 0
13.5 1 0
13.8 1 0
14.1 1 0
14.4 1 0
14.7 1 0
15 1 0
15.3 1 0
15.6 1 0
15.9 1 0
16.2 1 0
16.5 1 0
16.8 1 0
17.1 1 0
17.4 1 0
17.7 1 0
18 1 0
18.3 1 0
18.6 1 0
18.9 1 0
19.2 1 0
19.5 1 0
19.8 1 0
20.1 1 0
20.4 1 0
20.7 1 0
21 1 0
21.3 1 0
21.6 1 0
21.9 1 0
22.2 1 0
22.5 1 0
22.8 1 0
23.1 1 0
23.4 1 0
23.7 1 0
24 1 0
24.3 1 0
24.6 1 0
24.9 1 0
25.2 1 0
25.5 1 0
25.8 1 0
26.1 1 0
26.4 1 0
26.7 1 0
27 1 0
27.3 1 0
27.6 1 0
27.9 1 0
28.2 1 0
28.5 1 0
28.8 1 0
29.1 1 0
29.4 1 0
29.7 1 0
30 1 0
30.3 1 0
0 1.1 0
0.3 1.1 0
0.6 1.1 0
0.9 1.1 0
1.2 1.1 0
1.5 1.1 0
1.8 1.1 0
2.1 1.1 0
2.4 1.1 0
2.7 1.1 0
3 1.1 0
3.3 1.1 0
3.6 1.1 0
3.9 1.1 0
4.2 1.1 0
4.5 1.1 0
4.8 1.1 0
5.1 1.1 0
5.4 1.1 0
5.7 1.1 0
6 1.1 0
6.3 1.1 0
6.6 1.1 0
6.9 1.1 0
7.2 1.1 0
7.5 1.1 0
7.8 1.1 0
8.1 1.1 0
8.4 1.1 0
8.7 1.1 0
9 1.1 0
9.3 1.1 0
9.6 1.1 0
9.9 1.1 0
10.2 1.1 0
10.5 1.1 0
10.8 1.1 0
11.1 1.1 0
11.4 1.1 0
11.7 1.1 0
12 1.1 0
12.3 1.1 0
12.6 1.1 0
12.9 1.1 0
13.2 1.1 0
13.5 1.1 0
13.8 1.1 0
14.1 1.1 0
14.4 1.1 0
14.7 1.1 0
15 1.1 0
15.3 1.1 0
15.6 1.1 0
15.9 1.1 0
16.2 1.1 0
16.5 1.1 0
16.8 1.1 0
17.1 1.1 0
17.4 1.1 0
17.7 1.1 0
18 1.1 0
18.3 1.1 0
18.6 1.1 0
18.9 1.1 0
19.2 1.1 0
19.5 1.1 0
19.8 1.1 0
20.1 1.1 0
20.4 1.1 0
20.7 1.1 0
21 1.1 0
21.3 1.1 0
21.6 1.1 0
21.9 1.1 0
22.2 1.1 0
22.5 1.1 0
22.8 1.1 0
23.1 1.1 0
23.4 1.1 0
23.7 1.1 0
24 1.1 0
24.3 1.1 0
24.6 1.1 0
24.9 1.1 0
25.2 1.1 0
25.5 1.1 0
25.8 1.1 0
26.1 1.1 0
26.4 1.1 0
26.7 1.1 0
27 1.1 0
27.3 1.1 0
27.6 1.1 0
27.9 1.1 0
28.2 1.1 0
28.5 1.1 0
28.8 1.1 0
29.1 1.1 0
29.4 1.1 0
29.7 1.1 0
30 1.1 0
30.3 1.1 0

POINT_DATA 1224

SCALARS v double
LOOKUP_TABLE default
0
0
0
0
0
0
0
0
0
0
0
0
0
0
0
0
0
0
0
0
0
0
0
0
0
0
0
0
0
0
0
0
0
0
0
0
0
0
0
0
0
0
0
0
0
0
0
0
0
0
0
0
0
0
0
0
0
0
0
0
0
0
0
0
0
0
0
0
0
0
0
0
0
0
0
0
0
0
0
0
0
0
0
0
0
0
0
0
0
0
0
0
0
0
0
0
0
0
0
0
0
0
-0.0630253
0.0630253
0.0557271
0.0385112
0.0243783
0.0149415
0.00927632
0.0060418
0.00419935
0.003109
0.00242023
0.00195187
0.00161171
0.00135185
0.00114613
0.000979214
0.00084147
0.000726378
0.000629295
0.000546784
0.000476232
0.000415601
0.000363277
0.000317966
0.000278616
0.000244358
0.000214471
0.000188359
0.000165513
0.0001455
0.00012795
0.000112551
9.90306e-05
8.7152e-05
7.67096e-05
6.75281e-05
5.9454e-05
5.23503e-05
4.60982e-05
4.05958e-05
3.57526e-05
3.14885e-05
2.77341e-05
2.44283e-05
2.15172e-05
1.89535e-05
1.66953e-05
1.47065e-05
1.2955e-05
1.14123e-05
1.00535e-05
8.85634e-06
7.80179e-06
6.87301e-06
6.05497e-06
5.33433e-06
4.69947e-06
4.14029e-06
3.64779e-06
3.21388e-06
2.83152e-06
2.4946e-06
2.1976e-06
1.93555e-06
1.70411e-06
1.4995e-06
1.31842e-06
1.15788e-06
1.01527e-06
8.88378e-07
7.75395e-07
6.74672e-07
5.84801e-07
5.04732e-07
4.33505e-07
3.70228e-07
3.14254e-07
2.65017e-07
2.21931e-07
1.84462e-07
1.5214e-07
1.24489e-07
1.0103e-07
8.13459e-08
6.4988e-08
5.14979e-08
4.05119e-08
3.16673e-08
2.46096e-08
1.9059e-08
1.47376e-08
1.13893e-08
8.83293e-09
6.89441e-09
5.49527e-09
4.37941e-09
3.74416e-09
2.69071e-09
2.67554e-09
1.81785e-09
-6.99927e-09
-6.99927e-09
-0.051614
0.051614
0.0605197
0.0485979
0.0351317
0.0247329
0.0176652
0.0130517
0.0100098
0.00792705
0.00643318
0.00531473
0.00444813
0.0037591
0.00320061
0.00274127
0.00235911
0.0020382
0.00176665
0.00153538
0.00133735
0.00116702
0.00101995
0.000892558
0.000781911
0.000685589
0.000601579
0.000528194
0.000464003
0.000407789
0.000358517
0.000315296
0.000277359
0.000244039
0.00021476
0.000189024
0.000166396
0.000146492
0.00012898
0.000113571
0.000100011
8.80741e-05
7.75659e-05
6.83144e-05
6.01687e-05
5.29959e-05
4.66792e-05
4.11164e-05
3.62174e-05
3.19028e-05
2.81025e-05
2.47551e-05
2.18067e-05
1.92099e-05
1.69226e-05
1.49077e-05
1.3133e-05
1.15697e-05
1.01928e-05
8.97964e-06
7.91073e-06
6.9687e-06
6.13807e-06
5.40511e-06
4.75773e-06
4.18533e-06
3.67857e-06
3.22919e-06
2.82996e-06
2.47482e-06
2.15853e-06
1.87657e-06
1.62515e-06
1.4012e-06
1.20199e-06
1.02522e-06
8.69029e-07
7.31684e-07
6.11578e-07
5.0726e-07
4.17363e-07
3.4053e-07
2.75449e-07
2.20871e-07
1.75532e-07
1.38237e-07
1.07909e-07
8.35021e-08
6.40752e-08
4.87985e-08
3.69e-08
2.77318e-08
2.07563e-08
1.55119e-08
1.16723e-08
8.71897e-09
6.93476e-09
4.37325e-09
5.00302e-09
-7.88365e-09
-2.26445e-08
-2.26445e-08
-0.031689
0.031689
0.0439855
0.0385944
0.0299835
0.0226205
0.0172756
0.0135694
0.0109667
0.00906484
0.00761232
0.00646147
0.00552523
0.00474977
0.00409958
0.00354967
0.00308154
0.00268097
0.00233674
0.00203987
0.00178308
0.00156037
0.00136679
0.00119821
0.00105115
0.000922694
0.000810346
0.000711988
0.000625801
0.00055022
0.000483899
0.000425673
0.000374528
0.000329583
0.000290074
0.000255335
0.000224781
0.000197901
0.000174249
0.000153435
0.000135115
0.000118989
0.000104792
9.22926e-05
8.12871e-05
7.15959e-05
6.30615e-05
5.55459e-05
4.89271e-05
4.30977e-05
3.79633e-05
3.34409e-05
2.94578e-05
2.59495e-05
2.28594e-05
2.01374e-05
1.77398e-05
1.5628e-05
1.37677e-05
1.21289e-05
1.06849e-05
9.41238e-06
8.29032e-06
7.30028e-06
6.42596e-06
5.65308e-06
4.96896e-06
4.36243e-06
3.8238e-06
3.34482e-06
2.91836e-06
2.53827e-06
2.19946e-06
1.89763e-06
1.6291e-06
1.3908e-06
1.18012e-06
9.94694e-07
8.32379e-07
6.91245e-07
5.69446e-07
4.65176e-07
3.76706e-07
3.02354e-07
2.40449e-07
1.89432e-07
1.47844e-07
1.14291e-07
8.75269e-08
6.64113e-08
4.99236e-08
3.71968e-08
2.74993e-08
2.0201e-08
1.48205e-08
1.07335e-08
8.1943e-09
4.86538e-09
5.80262e-09
-1.55196e-08
-3.05825e-08
-3.05825e-08
-0.0146343
0.0146343
0.022178
0.0203996
0.0164656
0.0128763
0.0101764
0.00824855
0.00685377
0.00580156
0.00497127
0.00429241
0.00372394
0.00324075
0.00282628
0.0024687
0.00215902
0.00189006
0.00165598
0.00145191
0.00127375
0.00111804
0.000981794
0.00086249
0.000757941
0.000666261
0.000585823
0.000515215
0.000453206
0.000398729
0.000350856
0.000308773
0.000271769
0.000239225
0.000210597
0.000185412
0.00016325
0.000143745
0.000126578
0.000111467
9.81648e-05
8.64529e-05
7.6141e-05
6.70612e-05
5.90658e-05
5.20248e-05
4.5824e-05
4.03632e-05
3.55539e-05
3.1318e-05
2.7587e-05
2.43008e-05
2.14065e-05
1.88572e-05
1.66116e-05
1.46336e-05
1.28914e-05
1.13568e-05
1.0005e-05
8.81405e-06
7.76479e-06
6.8401e-06
6.02478e-06
5.30541e-06
4.67022e-06
4.10883e-06
3.612e-06
3.17159e-06
2.78059e-06
2.433e-06
2.12358e-06
1.84786e-06
1.60213e-06
1.3832e-06
1.18838e-06
1.01546e-06
8.62504e-07
7.27759e-07
6.09693e-07
5.06919e-07
4.18101e-07
3.41944e-07
2.77217e-07
2.22704e-07
1.77216e-07
1.39651e-07
1.0895e-07
8.41209e-08
6.42677e-08
4.85547e-08
3.62521e-08
2.67387e-08
1.9479e-08
1.40184e-08
9.97528e-09
6.95155e-09
5.0852e-09
2.75973e-09
3.67141e-09
-1.24663e-08
-2.13863e-08
-2.13863e-08
1.55035e-08
-1.55035e-08
-6.11208e-09
1.67751e-08
2.82211e-08
1.34152e-08
-1.7217e-10
7.17403e-09
1.22683e-08
4.2485e-09
9.87795e-10
6.66269e-09
9.75223e-09
7.85742e-09
6.70618e-09
7.89392e-09
8.9652e-09
8.80169e-09
7.52094e-09
6.43619e-09
6.99342e-09
7.2831e-09
6.28909e-09
6.05291e-09
6.13465e-09
5.31556e-09
4.97606e-09
5.35403e-09
4.97444e-09
4.2134e-09
4.25076e-09
4.49828e-09
4.07521e-09
3.41577e-09
3.33864e-09
3.70996e-09
3.62585e-09
3.05535e-09
2.80381e-09
2.92294e-09
2.93165e-09
2.72082e-09
2.50451e-09
2.47315e-09
2.46811e-09
2.31363e-09
2.16936e-09
2.15715e-09
2.19354e-09
2.14333e-09
1.99089e-09
1.91432e-09
1.99416e-09
2.06801e-09
2.04137e-09
2.00606e-09
2.0296e-09
2.07737e-09
2.09941e-09
2.10836e-09
2.14519e-09
2.19077e-09
2.18148e-09
2.1038e-09
2.02422e-09
1.97574e-09
1.89543e-09
1.74268e-09
1.56102e-09
1.38297e-09
1.17775e-09
9.4322e-10
7.11087e-10
4.55246e-10
1.84443e-10
-4.31253e-11
-2.5608e-10
-4.89921e-10
-7.16371e-10
-9.1691e-10
-1.09858e-09
-1.26569e-09
-1.41117e-09
-1.54798e-09
-1.68145e-09
-1.79785e-09
-1.90316e-09
-1.98999e-09
-2.05941e-09
-2.12713e-09
-2.17941e-09
-2.20919e-09
-2.20638e-09
-2.17355e-09
-2.12151e-09
-2.00646e-09
-1.80826e-09
-1.50554e-09
-9.75284e-10
-5.21714e-10
1.48039e-09
1.48039e-09
0.0146343
-0.0146343
-0.0221781
-0.0203996
-0.0164656
-0.0128763
-0.0101764
-0.00824855
-0.00685375
-0.00580155
-0.00497126
-0.0042924
-0.00372392
-0.00324073
-0.00282626
-0.00246869
-0.002159
-0.00189005
-0.00165597
-0.0014519
-0.00127374
-0.00111802
-0.000981782
-0.000862479
-0.000757929
-0.000666251
-0.000585814
-0.000515205
-0.000453197
-0.000398721
-0.000350848
-0.000308764
-0.000271762
-0.000239218
-0.000210591
-0.000185405
-0.000163243
-0.000143739
-0.000126573
-0.000111462
-9.81592e-05
-8.64477e-05
-7.61361e-05
-6.70564e-05
-5.9061e-05
-5.20203e-05
-4.58198e-05
-4.0359e-05
-3.55496e-05
-3.13138e-05
-2.75831e-05
-2.4297e-05
-2.14026e-05
-1.88532e-05
-1.66076e-05
-1.46297e-05
-1.28874e-05
-1.13527e-05
-1.00008e-05
-8.80992e-06
-7.7606e-06
-6.83582e-06
-6.02051e-06
-5.30128e-06
-4.66624e-06
-4.10495e-06
-3.60826e-06
-3.16811e-06
-2.77745e-06
-2.43019e-06
-2.12114e-06
-1.84584e-06
-1.60053e-06
-1.38206e-06
-1.18772e-06
-1.01522e-06
-8.62653e-07
-7.28325e-07
-6.10666e-07
-5.08257e-07
-4.19768e-07
-3.43916e-07
-2.79457e-07
-2.25192e-07
-1.79947e-07
-1.426e-07
-1.12091e-07
-8.74241e-08
-6.77041e-08
-5.2113e-08
-3.99077e-08
-3.04505e-08
-2.31936e-08
-1.76762e-08
-1.35325e-08
-1.03153e-08
-8.07264e-09
-5.23206e-09
-5.14304e-09
1.1881e-08
2.43004e-08
2.43004e-08
0.031689
-0.031689
-0.0439855
-0.0385944
-0.0299835
-0.0226205
-0.0172756
-0.0135694
-0.0109667
-0.00906482
-0.0076123
-0.00646146
-0.00552522
-0.00474976
-0.00409957
-0.00354966
-0.00308153
-0.00268095
-0.00233673
-0.00203986
-0.00178307
-0.00156036
-0.00136678
-0.0011982
-0.00105114
-0.000922686
-0.000810339
-0.00071198
-0.000625793
-0.000550213
-0.000483894
-0.000425667
-0.000374521
-0.000329577
-0.000290069
-0.000255329
-0.000224775
-0.000197895
-0.000174244
-0.00015343
-0.00013511
-0.000118984
-0.000104788
-9.22883e-05
-8.12827e-05
-7.15917e-05
-6.30577e-05
-5.55421e-05
-4.89232e-05
-4.30938e-05
-3.79595e-05
-3.34373e-05
-2.94541e-05
-2.59458e-05
-2.28555e-05
-2.01336e-05
-1.7736e-05
-1.56241e-05
-1.37638e-05
-1.2125e-05
-1.0681e-05
-9.40839e-06
-8.28632e-06
-7.29636e-06
-6.42217e-06
-5.64939e-06
-4.96537e-06
-4.359e-06
-3.82063e-06
-3.34191e-06
-2.9157e-06
-2.53591e-06
-2.19742e-06
-1.89591e-06
-1.62771e-06
-1.38972e-06
-1.17934e-06
-9.94201e-07
-8.32174e-07
-6.91305e-07
-5.69742e-07
-4.65696e-07
-3.77431e-07
-3.03254e-07
-2.41527e-07
-1.90684e-07
-1.4924e-07
-1.15814e-07
-8.91628e-08
-6.81363e-08
-5.17207e-08
-3.90439e-08
-2.93609e-08
-2.20312e-08
-1.65663e-08
-1.23455e-08
-9.53836e-09
-5.82335e-09
-5.91448e-09
1.61978e-08
3.34916e-08
3.34916e-08
0.051614
-0.051614
-0.0605197
-0.0485979
-0.0351317
-0.0247329
-0.0176652
-0.0130517
-0.0100098
-0.00792703
-0.00643316
-0.00531473
-0.00444812
-0.00375909
-0.0032006
-0.00274126
-0.0023591
-0.00203819
-0.00176664
-0.00153537
-0.00133734
-0.00116702
-0.00101995
-0.000892552
-0.000781904
-0.000685583
-0.000601575
-0.000528189
-0.000463997
-0.000407784
-0.000358513
-0.000315292
-0.000277354
-0.000244034
-0.000214756
-0.000189021
-0.000166391
-0.000146487
-0.000128976
-0.000113567
-0.000100007
-8.80701e-05
-7.75621e-05
-6.83106e-05
-6.01648e-05
-5.29921e-05
-4.66756e-05
-4.11129e-05
-3.62139e-05
-3.18992e-05
-2.80989e-05
-2.47516e-05
-2.18033e-05
-1.92064e-05
-1.6919e-05
-1.49042e-05
-1.31294e-05
-1.15661e-05
-1.01891e-05
-8.97601e-06
-7.90713e-06
-6.96506e-06
-6.1344e-06
-5.40147e-06
-4.75417e-06
-4.18186e-06
-3.67515e-06
-3.22582e-06
-2.82674e-06
-2.47175e-06
-2.15558e-06
-1.87376e-06
-1.62254e-06
-1.39873e-06
-1.19965e-06
-1.02307e-06
-8.6704e-07
-7.29826e-07
-6.09856e-07
-5.05678e-07
-4.15902e-07
-3.3919e-07
-2.74232e-07
-2.19746e-07
-1.74501e-07
-1.3732e-07
-1.07079e-07
-8.27565e-08
-6.34148e-08
-4.81897e-08
-3.63373e-08
-2.72128e-08
-2.02685e-08
-1.50261e-08
-1.1139e-08
-8.13109e-09
-6.1883e-09
-3.46263e-09
-3.31958e-09
1.01178e-08
2.55415e-08
2.55415e-08
0.0630253
-0.0630253
-0.0557271
-0.0385112
-0.0243784
-0.0149415
-0.0092763
-0.00604181
-0.00419936
-0.00310899
-0.00242021
-0.00195186
-0.00161171
-0.00135184
-0.00114612
-0.00097921
-0.000841469
-0.000726375
-0.00062929
-0.000546779
-0.000476227
-0.000415597
-0.000363274
-0.000317962
-0.000278611
-0.000244353
-0.000214469
-0.000188356
-0.000165509
-0.000145495
-0.000127947
-0.000112548
-9.90263e-05
-8.71473e-05
-7.67062e-05
-6.75253e-05
-5.94504e-05
-5.23462e-05
-4.60946e-05
-4.05923e-05
-3.5749e-05
-3.14851e-05
-2.77308e-05
-2.44248e-05
-2.15136e-05
-1.89499e-05
-1.6692e-05
-1.47033e-05
-1.29517e-05
-1.14089e-05
-1.005e-05
-8.85294e-06
-7.79854e-06
-6.86975e-06
-6.0516e-06
-5.33094e-06
-4.69612e-06
-4.13694e-06
-3.64438e-06
-3.21048e-06
-2.82817e-06
-2.49125e-06
-2.19421e-06
-1.93215e-06
-1.70075e-06
-1.49619e-06
-1.3151e-06
-1.15455e-06
-1.01197e-06
-8.85139e-07
-7.72163e-07
-6.71448e-07
-5.81639e-07
-5.01584e-07
-4.30331e-07
-3.67099e-07
-3.11187e-07
-2.61968e-07
-2.18894e-07
-1.81454e-07
-1.49162e-07
-1.21547e-07
-9.81397e-08
-7.84857e-08
-6.21541e-08
-4.87208e-08
-3.77843e-08
-2.89892e-08
-2.19915e-08
-1.6476e-08
-1.21836e-08
-8.88067e-09
-6.3703e-09
-4.47324e-09
-3.07728e-09
-1.9814e-09
-1.3178e-09
-1.78458e-10
4.404e-11
1.56131e-09
9.85766e-09
9.85766e-09
0
0
0
0
0
0
0
0
0
0
0
0
0
0
0
0
0
0
0
0
0
0
0
0
0
0
0
0
0
0
0
0
0
0
0
0
0
0
0
0
0
0
0
0
0
0
0
0
0
0
0
0
0
0
0
0
0
0
0
0
0
0
0
0
0
0
0
0
0
0
0
0
0
0
0
0
0
0
0
0
0
0
0
0
0
0
0
0
0
0
0
0
0
0
0
0
0
0
0
0
0
0
0
0
0
0
0
0
0
0
0
0
0
0
0
0
0
0
0
0
0
0
0
0
0
0
0
0
0
0
0
0
0
0
0
0
0
0
0
0
0
0
0
0
0
0
0
0
0
0
0
0
0
0
0
0
0
0
0
0
0
0
0
0
0
0
0
0
0
0
0
0
0
0
0
0
0
0
0
0
0
0
0
0
0
0
0
0
0
0
0
0
0
0
0
0
0
0
0
0
0
0
0
0
