# vtk DataFile Version 2.0
FlowField
ASCII
DATASET STRUCTURED_GRID
DIMENSIONS 101 11 1 
POINTS 1111 double
0 0 0
0.3 0 0
0.6 0 0
0.9 0 0
1.2 0 0
1.5 0 0
1.8 0 0
2.1 0 0
2.4 0 0
2.7 0 0
3 0 0
3.3 0 0
3.6 0 0
3.9 0 0
4.2 0 0
4.5 0 0
4.8 0 0
5.1 0 0
5.4 0 0
5.7 0 0
6 0 0
6.3 0 0
6.6 0 0
6.9 0 0
7.2 0 0
7.5 0 0
7.8 0 0
8.1 0 0
8.4 0 0
8.7 0 0
9 0 0
9.3 0 0
9.6 0 0
9.9 0 0
10.2 0 0
10.5 0 0
10.8 0 0
11.1 0 0
11.4 0 0
11.7 0 0
12 0 0
12.3 0 0
12.6 0 0
12.9 0 0
13.2 0 0
13.5 0 0
13.8 0 0
14.1 0 0
14.4 0 0
14.7 0 0
15 0 0
15.3 0 0
15.6 0 0
15.9 0 0
16.2 0 0
16.5 0 0
16.8 0 0
17.1 0 0
17.4 0 0
17.7 0 0
18 0 0
18.3 0 0
18.6 0 0
18.9 0 0
19.2 0 0
19.5 0 0
19.8 0 0
20.1 0 0
20.4 0 0
20.7 0 0
21 0 0
21.3 0 0
21.6 0 0
21.9 0 0
22.2 0 0
22.5 0 0
22.8 0 0
23.1 0 0
23.4 0 0
23.7 0 0
24 0 0
24.3 0 0
24.6 0 0
24.9 0 0
25.2 0 0
25.5 0 0
25.8 0 0
26.1 0 0
26.4 0 0
26.7 0 0
27 0 0
27.3 0 0
27.6 0 0
27.9 0 0
28.2 0 0
28.5 0 0
28.8 0 0
29.1 0 0
29.4 0 0
29.7 0 0
30 0 0
0 0.1 0
0.3 0.1 0
0.6 0.1 0
0.9 0.1 0
1.2 0.1 0
1.5 0.1 0
1.8 0.1 0
2.1 0.1 0
2.4 0.1 0
2.7 0.1 0
3 0.1 0
3.3 0.1 0
3.6 0.1 0
3.9 0.1 0
4.2 0.1 0
4.5 0.1 0
4.8 0.1 0
5.1 0.1 0
5.4 0.1 0
5.7 0.1 0
6 0.1 0
6.3 0.1 0
6.6 0.1 0
6.9 0.1 0
7.2 0.1 0
7.5 0.1 0
7.8 0.1 0
8.1 0.1 0
8.4 0.1 0
8.7 0.1 0
9 0.1 0
9.3 0.1 0
9.6 0.1 0
9.9 0.1 0
10.2 0.1 0
10.5 0.1 0
10.8 0.1 0
11.1 0.1 0
11.4 0.1 0
11.7 0.1 0
12 0.1 0
12.3 0.1 0
12.6 0.1 0
12.9 0.1 0
13.2 0.1 0
13.5 0.1 0
13.8 0.1 0
14.1 0.1 0
14.4 0.1 0
14.7 0.1 0
15 0.1 0
15.3 0.1 0
15.6 0.1 0
15.9 0.1 0
16.2 0.1 0
16.5 0.1 0
16.8 0.1 0
17.1 0.1 0
17.4 0.1 0
17.7 0.1 0
18 0.1 0
18.3 0.1 0
18.6 0.1 0
18.9 0.1 0
19.2 0.1 0
19.5 0.1 0
19.8 0.1 0
20.1 0.1 0
20.4 0.1 0
20.7 0.1 0
21 0.1 0
21.3 0.1 0
21.6 0.1 0
21.9 0.1 0
22.2 0.1 0
22.5 0.1 0
22.8 0.1 0
23.1 0.1 0
23.4 0.1 0
23.7 0.1 0
24 0.1 0
24.3 0.1 0
24.6 0.1 0
24.9 0.1 0
25.2 0.1 0
25.5 0.1 0
25.8 0.1 0
26.1 0.1 0
26.4 0.1 0
26.7 0.1 0
27 0.1 0
27.3 0.1 0
27.6 0.1 0
27.9 0.1 0
28.2 0.1 0
28.5 0.1 0
28.8 0.1 0
29.1 0.1 0
29.4 0.1 0
29.7 0.1 0
30 0.1 0
0 0.2 0
0.3 0.2 0
0.6 0.2 0
0.9 0.2 0
1.2 0.2 0
1.5 0.2 0
1.8 0.2 0
2.1 0.2 0
2.4 0.2 0
2.7 0.2 0
3 0.2 0
3.3 0.2 0
3.6 0.2 0
3.9 0.2 0
4.2 0.2 0
4.5 0.2 0
4.8 0.2 0
5.1 0.2 0
5.4 0.2 0
5.7 0.2 0
6 0.2 0
6.3 0.2 0
6.6 0.2 0
6.9 0.2 0
7.2 0.2 0
7.5 0.2 0
7.8 0.2 0
8.1 0.2 0
8.4 0.2 0
8.7 0.2 0
9 0.2 0
9.3 0.2 0
9.6 0.2 0
9.9 0.2 0
10.2 0.2 0
10.5 0.2 0
10.8 0.2 0
11.1 0.2 0
11.4 0.2 0
11.7 0.2 0
12 0.2 0
12.3 0.2 0
12.6 0.2 0
12.9 0.2 0
13.2 0.2 0
13.5 0.2 0
13.8 0.2 0
14.1 0.2 0
14.4 0.2 0
14.7 0.2 0
15 0.2 0
15.3 0.2 0
15.6 0.2 0
15.9 0.2 0
16.2 0.2 0
16.5 0.2 0
16.8 0.2 0
17.1 0.2 0
17.4 0.2 0
17.7 0.2 0
18 0.2 0
18.3 0.2 0
18.6 0.2 0
18.9 0.2 0
19.2 0.2 0
19.5 0.2 0
19.8 0.2 0
20.1 0.2 0
20.4 0.2 0
20.7 0.2 0
21 0.2 0
21.3 0.2 0
21.6 0.2 0
21.9 0.2 0
22.2 0.2 0
22.5 0.2 0
22.8 0.2 0
23.1 0.2 0
23.4 0.2 0
23.7 0.2 0
24 0.2 0
24.3 0.2 0
24.6 0.2 0
24.9 0.2 0
25.2 0.2 0
25.5 0.2 0
25.8 0.2 0
26.1 0.2 0
26.4 0.2 0
26.7 0.2 0
27 0.2 0
27.3 0.2 0
27.6 0.2 0
27.9 0.2 0
28.2 0.2 0
28.5 0.2 0
28.8 0.2 0
29.1 0.2 0
29.4 0.2 0
29.7 0.2 0
30 0.2 0
0 0.3 0
0.3 0.3 0
0.6 0.3 0
0.9 0.3 0
1.2 0.3 0
1.5 0.3 0
1.8 0.3 0
2.1 0.3 0
2.4 0.3 0
2.7 0.3 0
3 0.3 0
3.3 0.3 0
3.6 0.3 0
3.9 0.3 0
4.2 0.3 0
4.5 0.3 0
4.8 0.3 0
5.1 0.3 0
5.4 0.3 0
5.7 0.3 0
6 0.3 0
6.3 0.3 0
6.6 0.3 0
6.9 0.3 0
7.2 0.3 0
7.5 0.3 0
7.8 0.3 0
8.1 0.3 0
8.4 0.3 0
8.7 0.3 0
9 0.3 0
9.3 0.3 0
9.6 0.3 0
9.9 0.3 0
10.2 0.3 0
10.5 0.3 0
10.8 0.3 0
11.1 0.3 0
11.4 0.3 0
11.7 0.3 0
12 0.3 0
12.3 0.3 0
12.6 0.3 0
12.9 0.3 0
13.2 0.3 0
13.5 0.3 0
13.8 0.3 0
14.1 0.3 0
14.4 0.3 0
14.7 0.3 0
15 0.3 0
15.3 0.3 0
15.6 0.3 0
15.9 0.3 0
16.2 0.3 0
16.5 0.3 0
16.8 0.3 0
17.1 0.3 0
17.4 0.3 0
17.7 0.3 0
18 0.3 0
18.3 0.3 0
18.6 0.3 0
18.9 0.3 0
19.2 0.3 0
19.5 0.3 0
19.8 0.3 0
20.1 0.3 0
20.4 0.3 0
20.7 0.3 0
21 0.3 0
21.3 0.3 0
21.6 0.3 0
21.9 0.3 0
22.2 0.3 0
22.5 0.3 0
22.8 0.3 0
23.1 0.3 0
23.4 0.3 0
23.7 0.3 0
24 0.3 0
24.3 0.3 0
24.6 0.3 0
24.9 0.3 0
25.2 0.3 0
25.5 0.3 0
25.8 0.3 0
26.1 0.3 0
26.4 0.3 0
26.7 0.3 0
27 0.3 0
27.3 0.3 0
27.6 0.3 0
27.9 0.3 0
28.2 0.3 0
28.5 0.3 0
28.8 0.3 0
29.1 0.3 0
29.4 0.3 0
29.7 0.3 0
30 0.3 0
0 0.4 0
0.3 0.4 0
0.6 0.4 0
0.9 0.4 0
1.2 0.4 0
1.5 0.4 0
1.8 0.4 0
2.1 0.4 0
2.4 0.4 0
2.7 0.4 0
3 0.4 0
3.3 0.4 0
3.6 0.4 0
3.9 0.4 0
4.2 0.4 0
4.5 0.4 0
4.8 0.4 0
5.1 0.4 0
5.4 0.4 0
5.7 0.4 0
6 0.4 0
6.3 0.4 0
6.6 0.4 0
6.9 0.4 0
7.2 0.4 0
7.5 0.4 0
7.8 0.4 0
8.1 0.4 0
8.4 0.4 0
8.7 0.4 0
9 0.4 0
9.3 0.4 0
9.6 0.4 0
9.9 0.4 0
10.2 0.4 0
10.5 0.4 0
10.8 0.4 0
11.1 0.4 0
11.4 0.4 0
11.7 0.4 0
12 0.4 0
12.3 0.4 0
12.6 0.4 0
12.9 0.4 0
13.2 0.4 0
13.5 0.4 0
13.8 0.4 0
14.1 0.4 0
14.4 0.4 0
14.7 0.4 0
15 0.4 0
15.3 0.4 0
15.6 0.4 0
15.9 0.4 0
16.2 0.4 0
16.5 0.4 0
16.8 0.4 0
17.1 0.4 0
17.4 0.4 0
17.7 0.4 0
18 0.4 0
18.3 0.4 0
18.6 0.4 0
18.9 0.4 0
19.2 0.4 0
19.5 0.4 0
19.8 0.4 0
20.1 0.4 0
20.4 0.4 0
20.7 0.4 0
21 0.4 0
21.3 0.4 0
21.6 0.4 0
21.9 0.4 0
22.2 0.4 0
22.5 0.4 0
22.8 0.4 0
23.1 0.4 0
23.4 0.4 0
23.7 0.4 0
24 0.4 0
24.3 0.4 0
24.6 0.4 0
24.9 0.4 0
25.2 0.4 0
25.5 0.4 0
25.8 0.4 0
26.1 0.4 0
26.4 0.4 0
26.7 0.4 0
27 0.4 0
27.3 0.4 0
27.6 0.4 0
27.9 0.4 0
28.2 0.4 0
28.5 0.4 0
28.8 0.4 0
29.1 0.4 0
29.4 0.4 0
29.7 0.4 0
30 0.4 0
0 0.5 0
0.3 0.5 0
0.6 0.5 0
0.9 0.5 0
1.2 0.5 0
1.5 0.5 0
1.8 0.5 0
2.1 0.5 0
2.4 0.5 0
2.7 0.5 0
3 0.5 0
3.3 0.5 0
3.6 0.5 0
3.9 0.5 0
4.2 0.5 0
4.5 0.5 0
4.8 0.5 0
5.1 0.5 0
5.4 0.5 0
5.7 0.5 0
6 0.5 0
6.3 0.5 0
6.6 0.5 0
6.9 0.5 0
7.2 0.5 0
7.5 0.5 0
7.8 0.5 0
8.1 0.5 0
8.4 0.5 0
8.7 0.5 0
9 0.5 0
9.3 0.5 0
9.6 0.5 0
9.9 0.5 0
10.2 0.5 0
10.5 0.5 0
10.8 0.5 0
11.1 0.5 0
11.4 0.5 0
11.7 0.5 0
12 0.5 0
12.3 0.5 0
12.6 0.5 0
12.9 0.5 0
13.2 0.5 0
13.5 0.5 0
13.8 0.5 0
14.1 0.5 0
14.4 0.5 0
14.7 0.5 0
15 0.5 0
15.3 0.5 0
15.6 0.5 0
15.9 0.5 0
16.2 0.5 0
16.5 0.5 0
16.8 0.5 0
17.1 0.5 0
17.4 0.5 0
17.7 0.5 0
18 0.5 0
18.3 0.5 0
18.6 0.5 0
18.9 0.5 0
19.2 0.5 0
19.5 0.5 0
19.8 0.5 0
20.1 0.5 0
20.4 0.5 0
20.7 0.5 0
21 0.5 0
21.3 0.5 0
21.6 0.5 0
21.9 0.5 0
22.2 0.5 0
22.5 0.5 0
22.8 0.5 0
23.1 0.5 0
23.4 0.5 0
23.7 0.5 0
24 0.5 0
24.3 0.5 0
24.6 0.5 0
24.9 0.5 0
25.2 0.5 0
25.5 0.5 0
25.8 0.5 0
26.1 0.5 0
26.4 0.5 0
26.7 0.5 0
27 0.5 0
27.3 0.5 0
27.6 0.5 0
27.9 0.5 0
28.2 0.5 0
28.5 0.5 0
28.8 0.5 0
29.1 0.5 0
29.4 0.5 0
29.7 0.5 0
30 0.5 0
0 0.6 0
0.3 0.6 0
0.6 0.6 0
0.9 0.6 0
1.2 0.6 0
1.5 0.6 0
1.8 0.6 0
2.1 0.6 0
2.4 0.6 0
2.7 0.6 0
3 0.6 0
3.3 0.6 0
3.6 0.6 0
3.9 0.6 0
4.2 0.6 0
4.5 0.6 0
4.8 0.6 0
5.1 0.6 0
5.4 0.6 0
5.7 0.6 0
6 0.6 0
6.3 0.6 0
6.6 0.6 0
6.9 0.6 0
7.2 0.6 0
7.5 0.6 0
7.8 0.6 0
8.1 0.6 0
8.4 0.6 0
8.7 0.6 0
9 0.6 0
9.3 0.6 0
9.6 0.6 0
9.9 0.6 0
10.2 0.6 0
10.5 0.6 0
10.8 0.6 0
11.1 0.6 0
11.4 0.6 0
11.7 0.6 0
12 0.6 0
12.3 0.6 0
12.6 0.6 0
12.9 0.6 0
13.2 0.6 0
13.5 0.6 0
13.8 0.6 0
14.1 0.6 0
14.4 0.6 0
14.7 0.6 0
15 0.6 0
15.3 0.6 0
15.6 0.6 0
15.9 0.6 0
16.2 0.6 0
16.5 0.6 0
16.8 0.6 0
17.1 0.6 0
17.4 0.6 0
17.7 0.6 0
18 0.6 0
18.3 0.6 0
18.6 0.6 0
18.9 0.6 0
19.2 0.6 0
19.5 0.6 0
19.8 0.6 0
20.1 0.6 0
20.4 0.6 0
20.7 0.6 0
21 0.6 0
21.3 0.6 0
21.6 0.6 0
21.9 0.6 0
22.2 0.6 0
22.5 0.6 0
22.8 0.6 0
23.1 0.6 0
23.4 0.6 0
23.7 0.6 0
24 0.6 0
24.3 0.6 0
24.6 0.6 0
24.9 0.6 0
25.2 0.6 0
25.5 0.6 0
25.8 0.6 0
26.1 0.6 0
26.4 0.6 0
26.7 0.6 0
27 0.6 0
27.3 0.6 0
27.6 0.6 0
27.9 0.6 0
28.2 0.6 0
28.5 0.6 0
28.8 0.6 0
29.1 0.6 0
29.4 0.6 0
29.7 0.6 0
30 0.6 0
0 0.7 0
0.3 0.7 0
0.6 0.7 0
0.9 0.7 0
1.2 0.7 0
1.5 0.7 0
1.8 0.7 0
2.1 0.7 0
2.4 0.7 0
2.7 0.7 0
3 0.7 0
3.3 0.7 0
3.6 0.7 0
3.9 0.7 0
4.2 0.7 0
4.5 0.7 0
4.8 0.7 0
5.1 0.7 0
5.4 0.7 0
5.7 0.7 0
6 0.7 0
6.3 0.7 0
6.6 0.7 0
6.9 0.7 0
7.2 0.7 0
7.5 0.7 0
7.8 0.7 0
8.1 0.7 0
8.4 0.7 0
8.7 0.7 0
9 0.7 0
9.3 0.7 0
9.6 0.7 0
9.9 0.7 0
10.2 0.7 0
10.5 0.7 0
10.8 0.7 0
11.1 0.7 0
11.4 0.7 0
11.7 0.7 0
12 0.7 0
12.3 0.7 0
12.6 0.7 0
12.9 0.7 0
13.2 0.7 0
13.5 0.7 0
13.8 0.7 0
14.1 0.7 0
14.4 0.7 0
14.7 0.7 0
15 0.7 0
15.3 0.7 0
15.6 0.7 0
15.9 0.7 0
16.2 0.7 0
16.5 0.7 0
16.8 0.7 0
17.1 0.7 0
17.4 0.7 0
17.7 0.7 0
18 0.7 0
18.3 0.7 0
18.6 0.7 0
18.9 0.7 0
19.2 0.7 0
19.5 0.7 0
19.8 0.7 0
20.1 0.7 0
20.4 0.7 0
20.7 0.7 0
21 0.7 0
21.3 0.7 0
21.6 0.7 0
21.9 0.7 0
22.2 0.7 0
22.5 0.7 0
22.8 0.7 0
23.1 0.7 0
23.4 0.7 0
23.7 0.7 0
24 0.7 0
24.3 0.7 0
24.6 0.7 0
24.9 0.7 0
25.2 0.7 0
25.5 0.7 0
25.8 0.7 0
26.1 0.7 0
26.4 0.7 0
26.7 0.7 0
27 0.7 0
27.3 0.7 0
27.6 0.7 0
27.9 0.7 0
28.2 0.7 0
28.5 0.7 0
28.8 0.7 0
29.1 0.7 0
29.4 0.7 0
29.7 0.7 0
30 0.7 0
0 0.8 0
0.3 0.8 0
0.6 0.8 0
0.9 0.8 0
1.2 0.8 0
1.5 0.8 0
1.8 0.8 0
2.1 0.8 0
2.4 0.8 0
2.7 0.8 0
3 0.8 0
3.3 0.8 0
3.6 0.8 0
3.9 0.8 0
4.2 0.8 0
4.5 0.8 0
4.8 0.8 0
5.1 0.8 0
5.4 0.8 0
5.7 0.8 0
6 0.8 0
6.3 0.8 0
6.6 0.8 0
6.9 0.8 0
7.2 0.8 0
7.5 0.8 0
7.8 0.8 0
8.1 0.8 0
8.4 0.8 0
8.7 0.8 0
9 0.8 0
9.3 0.8 0
9.6 0.8 0
9.9 0.8 0
10.2 0.8 0
10.5 0.8 0
10.8 0.8 0
11.1 0.8 0
11.4 0.8 0
11.7 0.8 0
12 0.8 0
12.3 0.8 0
12.6 0.8 0
12.9 0.8 0
13.2 0.8 0
13.5 0.8 0
13.8 0.8 0
14.1 0.8 0
14.4 0.8 0
14.7 0.8 0
15 0.8 0
15.3 0.8 0
15.6 0.8 0
15.9 0.8 0
16.2 0.8 0
16.5 0.8 0
16.8 0.8 0
17.1 0.8 0
17.4 0.8 0
17.7 0.8 0
18 0.8 0
18.3 0.8 0
18.6 0.8 0
18.9 0.8 0
19.2 0.8 0
19.5 0.8 0
19.8 0.8 0
20.1 0.8 0
20.4 0.8 0
20.7 0.8 0
21 0.8 0
21.3 0.8 0
21.6 0.8 0
21.9 0.8 0
22.2 0.8 0
22.5 0.8 0
22.8 0.8 0
23.1 0.8 0
23.4 0.8 0
23.7 0.8 0
24 0.8 0
24.3 0.8 0
24.6 0.8 0
24.9 0.8 0
25.2 0.8 0
25.5 0.8 0
25.8 0.8 0
26.1 0.8 0
26.4 0.8 0
26.7 0.8 0
27 0.8 0
27.3 0.8 0
27.6 0.8 0
27.9 0.8 0
28.2 0.8 0
28.5 0.8 0
28.8 0.8 0
29.1 0.8 0
29.4 0.8 0
29.7 0.8 0
30 0.8 0
0 0.9 0
0.3 0.9 0
0.6 0.9 0
0.9 0.9 0
1.2 0.9 0
1.5 0.9 0
1.8 0.9 0
2.1 0.9 0
2.4 0.9 0
2.7 0.9 0
3 0.9 0
3.3 0.9 0
3.6 0.9 0
3.9 0.9 0
4.2 0.9 0
4.5 0.9 0
4.8 0.9 0
5.1 0.9 0
5.4 0.9 0
5.7 0.9 0
6 0.9 0
6.3 0.9 0
6.6 0.9 0
6.9 0.9 0
7.2 0.9 0
7.5 0.9 0
7.8 0.9 0
8.1 0.9 0
8.4 0.9 0
8.7 0.9 0
9 0.9 0
9.3 0.9 0
9.6 0.9 0
9.9 0.9 0
10.2 0.9 0
10.5 0.9 0
10.8 0.9 0
11.1 0.9 0
11.4 0.9 0
11.7 0.9 0
12 0.9 0
12.3 0.9 0
12.6 0.9 0
12.9 0.9 0
13.2 0.9 0
13.5 0.9 0
13.8 0.9 0
14.1 0.9 0
14.4 0.9 0
14.7 0.9 0
15 0.9 0
15.3 0.9 0
15.6 0.9 0
15.9 0.9 0
16.2 0.9 0
16.5 0.9 0
16.8 0.9 0
17.1 0.9 0
17.4 0.9 0
17.7 0.9 0
18 0.9 0
18.3 0.9 0
18.6 0.9 0
18.9 0.9 0
19.2 0.9 0
19.5 0.9 0
19.8 0.9 0
20.1 0.9 0
20.4 0.9 0
20.7 0.9 0
21 0.9 0
21.3 0.9 0
21.6 0.9 0
21.9 0.9 0
22.2 0.9 0
22.5 0.9 0
22.8 0.9 0
23.1 0.9 0
23.4 0.9 0
23.7 0.9 0
24 0.9 0
24.3 0.9 0
24.6 0.9 0
24.9 0.9 0
25.2 0.9 0
25.5 0.9 0
25.8 0.9 0
26.1 0.9 0
26.4 0.9 0
26.7 0.9 0
27 0.9 0
27.3 0.9 0
27.6 0.9 0
27.9 0.9 0
28.2 0.9 0
28.5 0.9 0
28.8 0.9 0
29.1 0.9 0
29.4 0.9 0
29.7 0.9 0
30 0.9 0
0 1 0
0.3 1 0
0.6 1 0
0.9 1 0
1.2 1 0
1.5 1 0
1.8 1 0
2.1 1 0
2.4 1 0
2.7 1 0
3 1 0
3.3 1 0
3.6 1 0
3.9 1 0
4.2 1 0
4.5 1 0
4.8 1 0
5.1 1 0
5.4 1 0
5.7 1 0
6 1 0
6.3 1 0
6.6 1 0
6.9 1 0
7.2 1 0
7.5 1 0
7.8 1 0
8.1 1 0
8.4 1 0
8.7 1 0
9 1 0
9.3 1 0
9.6 1 0
9.9 1 0
10.2 1 0
10.5 1 0
10.8 1 0
11.1 1 0
11.4 1 0
11.7 1 0
12 1 0
12.3 1 0
12.6 1 0
12.9 1 0
13.2 1 0
13.5 1 0
13.8 1 0
14.1 1 0
14.4 1 0
14.7 1 0
15 1 0
15.3 1 0
15.6 1 0
15.9 1 0
16.2 1 0
16.5 1 0
16.8 1 0
17.1 1 0
17.4 1 0
17.7 1 0
18 1 0
18.3 1 0
18.6 1 0
18.9 1 0
19.2 1 0
19.5 1 0
19.8 1 0
20.1 1 0
20.4 1 0
20.7 1 0
21 1 0
21.3 1 0
21.6 1 0
21.9 1 0
22.2 1 0
22.5 1 0
22.8 1 0
23.1 1 0
23.4 1 0
23.7 1 0
24 1 0
24.3 1 0
24.6 1 0
24.9 1 0
25.2 1 0
25.5 1 0
25.8 1 0
26.1 1 0
26.4 1 0
26.7 1 0
27 1 0
27.3 1 0
27.6 1 0
27.9 1 0
28.2 1 0
28.5 1 0
28.8 1 0
29.1 1 0
29.4 1 0
29.7 1 0
30 1 0

POINT_DATA 1111

SCALARS p double
LOOKUP_TABLE default
1.50872
1.50872
1.43999
1.3893
1.34246
1.29902
1.25936
1.22347
1.19099
1.16141
1.13418
1.10883
1.08499
1.06234
1.04066
1.01977
0.999548
0.979883
0.960702
0.941941
0.923553
0.905496
0.887737
0.870246
0.852998
0.835972
0.819148
0.802509
0.786039
0.769724
0.753552
0.737511
0.721591
0.705782
0.690075
0.674462
0.658938
0.643494
0.628127
0.612831
0.597603
0.582438
0.567334
0.552287
0.537294
0.522353
0.507459
0.49261
0.477802
0.46303
0.44829
0.433579
0.418891
0.404224
0.389574
0.374937
0.360311
0.345694
0.331082
0.316476
0.301874
0.287274
0.272676
0.258079
0.243483
0.228888
0.214293
0.199698
0.185104
0.17051
0.155915
0.141321
0.126727
0.112133
0.0975383
0.0829441
0.0683499
0.0537557
0.0391615
0.0245673
0.00997313
-0.00462106
-0.0192153
-0.0338094
-0.0484036
-0.0629978
-0.077592
-0.0921862
-0.10678
-0.121375
-0.135969
-0.150563
-0.165157
-0.179751
-0.194345
-0.20894
-0.223534
-0.238128
-0.252722
-0.267312
0.267312
1.50872
1.50872
1.43999
1.3893
1.34246
1.29902
1.25936
1.22347
1.19099
1.16141
1.13418
1.10883
1.08499
1.06234
1.04066
1.01977
0.999548
0.979883
0.960702
0.941941
0.923553
0.905496
0.887737
0.870246
0.852998
0.835972
0.819148
0.802509
0.786039
0.769724
0.753552
0.737511
0.721591
0.705782
0.690075
0.674462
0.658938
0.643494
0.628127
0.612831
0.597603
0.582438
0.567334
0.552287
0.537294
0.522353
0.507459
0.49261
0.477802
0.46303
0.44829
0.433579
0.418891
0.404224
0.389574
0.374937
0.360311
0.345694
0.331082
0.316476
0.301874
0.287274
0.272676
0.258079
0.243483
0.228888
0.214293
0.199698
0.185104
0.17051
0.155915
0.141321
0.126727
0.112133
0.0975383
0.0829441
0.0683499
0.0537557
0.0391615
0.0245673
0.00997313
-0.00462106
-0.0192153
-0.0338094
-0.0484036
-0.0629978
-0.077592
-0.0921862
-0.10678
-0.121375
-0.135969
-0.150563
-0.165157
-0.179751
-0.194345
-0.20894
-0.223534
-0.238128
-0.252722
-0.267312
0.267312
1.48846
1.48846
1.43842
1.3897
1.34318
1.29975
1.26001
1.22402
1.19143
1.16175
1.13444
1.10904
1.08515
1.06247
1.04076
1.01986
0.999619
0.979944
0.960754
0.941986
0.923593
0.905531
0.887768
0.870274
0.853024
0.835995
0.819169
0.802528
0.786056
0.76974
0.753567
0.737524
0.721603
0.705792
0.690085
0.674471
0.658946
0.643502
0.628134
0.612838
0.597608
0.582443
0.567338
0.55229
0.537297
0.522355
0.507461
0.492612
0.477803
0.463031
0.448291
0.433579
0.418891
0.404224
0.389574
0.374937
0.360311
0.345693
0.331082
0.316476
0.301874
0.287274
0.272676
0.258079
0.243483
0.228888
0.214293
0.199698
0.185104
0.17051
0.155915
0.141321
0.126727
0.112133
0.0975383
0.0829441
0.0683499
0.0537557
0.0391615
0.0245673
0.00997313
-0.00462107
-0.0192153
-0.0338094
-0.0484036
-0.0629978
-0.077592
-0.0921862
-0.10678
-0.121375
-0.135969
-0.150563
-0.165157
-0.179751
-0.194345
-0.20894
-0.223534
-0.238128
-0.252722
-0.267312
0.267312
1.47487
1.47487
1.43635
1.39024
1.3443
1.30094
1.26108
1.22491
1.19214
1.16229
1.13485
1.10935
1.08538
1.06265
1.0409
1.01997
0.999707
0.980016
0.960813
0.942037
0.923636
0.905569
0.887801
0.870303
0.853049
0.836018
0.819189
0.802546
0.786072
0.769755
0.75358
0.737536
0.721614
0.705802
0.690094
0.67448
0.658953
0.643509
0.62814
0.612843
0.597613
0.582447
0.567342
0.552294
0.5373
0.522358
0.507463
0.492613
0.477804
0.463032
0.448291
0.433579
0.418892
0.404224
0.389574
0.374937
0.360311
0.345693
0.331082
0.316476
0.301874
0.287274
0.272676
0.258079
0.243483
0.228888
0.214293
0.199698
0.185104
0.17051
0.155915
0.141321
0.126727
0.112133
0.0975383
0.0829441
0.0683499
0.0537557
0.0391615
0.0245673
0.00997313
-0.00462107
-0.0192153
-0.0338094
-0.0484036
-0.0629978
-0.077592
-0.0921862
-0.10678
-0.121375
-0.135969
-0.150563
-0.165157
-0.179751
-0.194345
-0.20894
-0.223534
-0.238128
-0.25272
-0.267311
0.267311
1.46737
1.46737
1.43487
1.39061
1.34515
1.30185
1.26193
1.22563
1.19273
1.16276
1.13522
1.10963
1.08561
1.06282
1.04104
1.02008
0.999799
0.980092
0.960878
0.942092
0.923683
0.90561
0.887837
0.870335
0.853077
0.836043
0.819212
0.802566
0.786091
0.769771
0.753595
0.73755
0.721626
0.705814
0.690104
0.674489
0.658962
0.643517
0.628148
0.61285
0.59762
0.582453
0.567347
0.552298
0.537304
0.522362
0.507467
0.492617
0.477807
0.463034
0.448293
0.433581
0.418893
0.404226
0.389575
0.374938
0.360312
0.345694
0.331083
0.316476
0.301874
0.287274
0.272676
0.258079
0.243483
0.228888
0.214293
0.199698
0.185104
0.17051
0.155915
0.141321
0.126727
0.112133
0.0975383
0.0829441
0.0683499
0.0537557
0.0391615
0.0245673
0.00997313
-0.00462106
-0.0192153
-0.0338094
-0.0484036
-0.0629978
-0.077592
-0.0921862
-0.10678
-0.121375
-0.135969
-0.150563
-0.165157
-0.179751
-0.194345
-0.20894
-0.223534
-0.238127
-0.252718
-0.267311
0.267311
1.46499
1.46499
1.43437
1.39076
1.34547
1.3022
1.26225
1.22591
1.19296
1.16295
1.13537
1.10975
1.0857
1.06289
1.0411
1.02013
0.99984
0.980127
0.960907
0.942117
0.923706
0.90563
0.887854
0.87035
0.853091
0.836055
0.819223
0.802576
0.7861
0.769779
0.753602
0.737557
0.721632
0.705819
0.690109
0.674494
0.658966
0.643521
0.628151
0.612853
0.597623
0.582456
0.56735
0.552301
0.537307
0.522364
0.507469
0.492619
0.477809
0.463036
0.448295
0.433582
0.418894
0.404226
0.389575
0.374938
0.360312
0.345694
0.331083
0.316477
0.301874
0.287274
0.272676
0.258079
0.243483
0.228888
0.214293
0.199698
0.185104
0.17051
0.155915
0.141321
0.126727
0.112133
0.0975383
0.0829441
0.0683499
0.0537557
0.0391615
0.0245673
0.00997313
-0.00462106
-0.0192153
-0.0338094
-0.0484036
-0.0629978
-0.077592
-0.0921862
-0.10678
-0.121375
-0.135969
-0.150563
-0.165157
-0.179751
-0.194345
-0.20894
-0.223534
-0.238127
-0.252717
-0.26731
0.26731
1.46737
1.46737
1.43487
1.39061
1.34515
1.30185
1.26193
1.22563
1.19273
1.16276
1.13522
1.10963
1.08561
1.06282
1.04104
1.02008
0.999799
0.980092
0.960878
0.942092
0.923683
0.90561
0.887837
0.870335
0.853077
0.836043
0.819212
0.802566
0.786091
0.769771
0.753595
0.73755
0.721626
0.705814
0.690104
0.674489
0.658962
0.643517
0.628148
0.61285
0.59762
0.582453
0.567347
0.552298
0.537304
0.522362
0.507467
0.492617
0.477807
0.463034
0.448293
0.433581
0.418893
0.404226
0.389575
0.374938
0.360312
0.345694
0.331083
0.316476
0.301874
0.287274
0.272676
0.258079
0.243483
0.228888
0.214293
0.199698
0.185104
0.17051
0.155915
0.141321
0.126727
0.112133
0.0975383
0.0829441
0.0683499
0.0537557
0.0391615
0.0245673
0.00997313
-0.00462106
-0.0192153
-0.0338094
-0.0484036
-0.0629978
-0.077592
-0.0921862
-0.10678
-0.121375
-0.135969
-0.150563
-0.165157
-0.179751
-0.194345
-0.20894
-0.223534
-0.238127
-0.252718
-0.267311
0.267311
1.47487
1.47487
1.43635
1.39024
1.3443
1.30094
1.26108
1.22491
1.19214
1.16229
1.13485
1.10935
1.08538
1.06265
1.0409
1.01997
0.999707
0.980016
0.960813
0.942037
0.923636
0.905569
0.887801
0.870303
0.853049
0.836018
0.819189
0.802546
0.786072
0.769755
0.75358
0.737536
0.721614
0.705802
0.690094
0.67448
0.658953
0.643509
0.62814
0.612843
0.597613
0.582447
0.567342
0.552294
0.5373
0.522358
0.507463
0.492613
0.477804
0.463032
0.448291
0.433579
0.418892
0.404224
0.389574
0.374937
0.360311
0.345693
0.331082
0.316476
0.301874
0.287274
0.272676
0.258079
0.243483
0.228888
0.214293
0.199698
0.185104
0.17051
0.155915
0.141321
0.126727
0.112133
0.0975383
0.0829441
0.0683499
0.0537557
0.0391615
0.0245673
0.00997313
-0.00462106
-0.0192153
-0.0338094
-0.0484036
-0.0629978
-0.077592
-0.0921862
-0.10678
-0.121375
-0.135969
-0.150563
-0.165157
-0.179751
-0.194345
-0.20894
-0.223534
-0.238128
-0.25272
-0.267311
0.267311
1.48846
1.48846
1.43842
1.3897
1.34318
1.29975
1.26001
1.22402
1.19143
1.16175
1.13444
1.10904
1.08515
1.06247
1.04076
1.01986
0.999619
0.979944
0.960754
0.941986
0.923593
0.905531
0.887768
0.870274
0.853024
0.835995
0.819169
0.802528
0.786056
0.76974
0.753567
0.737524
0.721603
0.705792
0.690085
0.674471
0.658946
0.643502
0.628134
0.612838
0.597608
0.582443
0.567338
0.55229
0.537297
0.522355
0.507461
0.492612
0.477803
0.463031
0.448291
0.433579
0.418891
0.404224
0.389574
0.374937
0.360311
0.345693
0.331082
0.316476
0.301874
0.287274
0.272676
0.258079
0.243483
0.228888
0.214293
0.199698
0.185104
0.17051
0.155915
0.141321
0.126727
0.112133
0.0975383
0.0829441
0.0683499
0.0537557
0.0391615
0.0245673
0.00997313
-0.00462106
-0.0192153
-0.0338094
-0.0484036
-0.0629978
-0.077592
-0.0921862
-0.10678
-0.121375
-0.135969
-0.150563
-0.165157
-0.179751
-0.194345
-0.20894
-0.223534
-0.238128
-0.252722
-0.267312
0.267312
1.50872
1.50872
1.43999
1.3893
1.34246
1.29902
1.25936
1.22347
1.19099
1.16141
1.13418
1.10883
1.08499
1.06234
1.04066
1.01977
0.999548
0.979883
0.960702
0.941941
0.923553
0.905496
0.887737
0.870246
0.852998
0.835972
0.819148
0.802509
0.786039
0.769724
0.753552
0.737511
0.721591
0.705782
0.690075
0.674462
0.658938
0.643494
0.628127
0.612831
0.597603
0.582438
0.567334
0.552287
0.537294
0.522353
0.507459
0.49261
0.477802
0.46303
0.44829
0.433579
0.418891
0.404224
0.389574
0.374937
0.360311
0.345694
0.331082
0.316476
0.301874
0.287274
0.272676
0.258079
0.243483
0.228888
0.214293
0.199698
0.185104
0.17051
0.155915
0.141321
0.126727
0.112133
0.0975383
0.0829441
0.0683499
0.0537557
0.0391615
0.0245673
0.00997313
-0.00462106
-0.0192153
-0.0338094
-0.0484036
-0.0629978
-0.077592
-0.0921862
-0.10678
-0.121375
-0.135969
-0.150563
-0.165157
-0.179751
-0.194345
-0.20894
-0.223534
-0.238128
-0.252722
-0.267312
0.267312
1.50872
1.50872
1.43999
1.3893
1.34246
1.29902
1.25936
1.22347
1.19099
1.16141
1.13418
1.10883
1.08499
1.06234
1.04066
1.01977
0.999548
0.979883
0.960702
0.941941
0.923553
0.905496
0.887737
0.870246
0.852998
0.835972
0.819148
0.802509
0.786039
0.769724
0.753552
0.737511
0.721591
0.705782
0.690075
0.674462
0.658938
0.643494
0.628127
0.612831
0.597603
0.582438
0.567334
0.552287
0.537294
0.522353
0.507459
0.49261
0.477802
0.46303
0.44829
0.433579
0.418891
0.404224
0.389574
0.374937
0.360311
0.345694
0.331082
0.316476
0.301874
0.287274
0.272676
0.258079
0.243483
0.228888
0.214293
0.199698
0.185104
0.17051
0.155915
0.141321
0.126727
0.112133
0.0975383
0.0829441
0.0683499
0.0537557
0.0391615
0.0245673
0.00997313
-0.00462106
-0.0192153
-0.0338094
-0.0484036
-0.0629978
-0.077592
-0.0921862
-0.10678
-0.121375
-0.135969
-0.150563
-0.165157
-0.179751
-0.194345
-0.20894
-0.223534
-0.238128
-0.252722
-0.267312
0.267312
