# vtk DataFile Version 2.0
FlowField
ASCII
DATASET STRUCTURED_GRID
DIMENSIONS 102 12 1 
POINTS 1224 double
0 0 0
0.3 0 0
0.6 0 0
0.9 0 0
1.2 0 0
1.5 0 0
1.8 0 0
2.1 0 0
2.4 0 0
2.7 0 0
3 0 0
3.3 0 0
3.6 0 0
3.9 0 0
4.2 0 0
4.5 0 0
4.8 0 0
5.1 0 0
5.4 0 0
5.7 0 0
6 0 0
6.3 0 0
6.6 0 0
6.9 0 0
7.2 0 0
7.5 0 0
7.8 0 0
8.1 0 0
8.4 0 0
8.7 0 0
9 0 0
9.3 0 0
9.6 0 0
9.9 0 0
10.2 0 0
10.5 0 0
10.8 0 0
11.1 0 0
11.4 0 0
11.7 0 0
12 0 0
12.3 0 0
12.6 0 0
12.9 0 0
13.2 0 0
13.5 0 0
13.8 0 0
14.1 0 0
14.4 0 0
14.7 0 0
15 0 0
15.3 0 0
15.6 0 0
15.9 0 0
16.2 0 0
16.5 0 0
16.8 0 0
17.1 0 0
17.4 0 0
17.7 0 0
18 0 0
18.3 0 0
18.6 0 0
18.9 0 0
19.2 0 0
19.5 0 0
19.8 0 0
20.1 0 0
20.4 0 0
20.7 0 0
21 0 0
21.3 0 0
21.6 0 0
21.9 0 0
22.2 0 0
22.5 0 0
22.8 0 0
23.1 0 0
23.4 0 0
23.7 0 0
24 0 0
24.3 0 0
24.6 0 0
24.9 0 0
25.2 0 0
25.5 0 0
25.8 0 0
26.1 0 0
26.4 0 0
26.7 0 0
27 0 0
27.3 0 0
27.6 0 0
27.9 0 0
28.2 0 0
28.5 0 0
28.8 0 0
29.1 0 0
29.4 0 0
29.7 0 0
30 0 0
30.3 0 0
0 0.1 0
0.3 0.1 0
0.6 0.1 0
0.9 0.1 0
1.2 0.1 0
1.5 0.1 0
1.8 0.1 0
2.1 0.1 0
2.4 0.1 0
2.7 0.1 0
3 0.1 0
3.3 0.1 0
3.6 0.1 0
3.9 0.1 0
4.2 0.1 0
4.5 0.1 0
4.8 0.1 0
5.1 0.1 0
5.4 0.1 0
5.7 0.1 0
6 0.1 0
6.3 0.1 0
6.6 0.1 0
6.9 0.1 0
7.2 0.1 0
7.5 0.1 0
7.8 0.1 0
8.1 0.1 0
8.4 0.1 0
8.7 0.1 0
9 0.1 0
9.3 0.1 0
9.6 0.1 0
9.9 0.1 0
10.2 0.1 0
10.5 0.1 0
10.8 0.1 0
11.1 0.1 0
11.4 0.1 0
11.7 0.1 0
12 0.1 0
12.3 0.1 0
12.6 0.1 0
12.9 0.1 0
13.2 0.1 0
13.5 0.1 0
13.8 0.1 0
14.1 0.1 0
14.4 0.1 0
14.7 0.1 0
15 0.1 0
15.3 0.1 0
15.6 0.1 0
15.9 0.1 0
16.2 0.1 0
16.5 0.1 0
16.8 0.1 0
17.1 0.1 0
17.4 0.1 0
17.7 0.1 0
18 0.1 0
18.3 0.1 0
18.6 0.1 0
18.9 0.1 0
19.2 0.1 0
19.5 0.1 0
19.8 0.1 0
20.1 0.1 0
20.4 0.1 0
20.7 0.1 0
21 0.1 0
21.3 0.1 0
21.6 0.1 0
21.9 0.1 0
22.2 0.1 0
22.5 0.1 0
22.8 0.1 0
23.1 0.1 0
23.4 0.1 0
23.7 0.1 0
24 0.1 0
24.3 0.1 0
24.6 0.1 0
24.9 0.1 0
25.2 0.1 0
25.5 0.1 0
25.8 0.1 0
26.1 0.1 0
26.4 0.1 0
26.7 0.1 0
27 0.1 0
27.3 0.1 0
27.6 0.1 0
27.9 0.1 0
28.2 0.1 0
28.5 0.1 0
28.8 0.1 0
29.1 0.1 0
29.4 0.1 0
29.7 0.1 0
30 0.1 0
30.3 0.1 0
0 0.2 0
0.3 0.2 0
0.6 0.2 0
0.9 0.2 0
1.2 0.2 0
1.5 0.2 0
1.8 0.2 0
2.1 0.2 0
2.4 0.2 0
2.7 0.2 0
3 0.2 0
3.3 0.2 0
3.6 0.2 0
3.9 0.2 0
4.2 0.2 0
4.5 0.2 0
4.8 0.2 0
5.1 0.2 0
5.4 0.2 0
5.7 0.2 0
6 0.2 0
6.3 0.2 0
6.6 0.2 0
6.9 0.2 0
7.2 0.2 0
7.5 0.2 0
7.8 0.2 0
8.1 0.2 0
8.4 0.2 0
8.7 0.2 0
9 0.2 0
9.3 0.2 0
9.6 0.2 0
9.9 0.2 0
10.2 0.2 0
10.5 0.2 0
10.8 0.2 0
11.1 0.2 0
11.4 0.2 0
11.7 0.2 0
12 0.2 0
12.3 0.2 0
12.6 0.2 0
12.9 0.2 0
13.2 0.2 0
13.5 0.2 0
13.8 0.2 0
14.1 0.2 0
14.4 0.2 0
14.7 0.2 0
15 0.2 0
15.3 0.2 0
15.6 0.2 0
15.9 0.2 0
16.2 0.2 0
16.5 0.2 0
16.8 0.2 0
17.1 0.2 0
17.4 0.2 0
17.7 0.2 0
18 0.2 0
18.3 0.2 0
18.6 0.2 0
18.9 0.2 0
19.2 0.2 0
19.5 0.2 0
19.8 0.2 0
20.1 0.2 0
20.4 0.2 0
20.7 0.2 0
21 0.2 0
21.3 0.2 0
21.6 0.2 0
21.9 0.2 0
22.2 0.2 0
22.5 0.2 0
22.8 0.2 0
23.1 0.2 0
23.4 0.2 0
23.7 0.2 0
24 0.2 0
24.3 0.2 0
24.6 0.2 0
24.9 0.2 0
25.2 0.2 0
25.5 0.2 0
25.8 0.2 0
26.1 0.2 0
26.4 0.2 0
26.7 0.2 0
27 0.2 0
27.3 0.2 0
27.6 0.2 0
27.9 0.2 0
28.2 0.2 0
28.5 0.2 0
28.8 0.2 0
29.1 0.2 0
29.4 0.2 0
29.7 0.2 0
30 0.2 0
30.3 0.2 0
0 0.3 0
0.3 0.3 0
0.6 0.3 0
0.9 0.3 0
1.2 0.3 0
1.5 0.3 0
1.8 0.3 0
2.1 0.3 0
2.4 0.3 0
2.7 0.3 0
3 0.3 0
3.3 0.3 0
3.6 0.3 0
3.9 0.3 0
4.2 0.3 0
4.5 0.3 0
4.8 0.3 0
5.1 0.3 0
5.4 0.3 0
5.7 0.3 0
6 0.3 0
6.3 0.3 0
6.6 0.3 0
6.9 0.3 0
7.2 0.3 0
7.5 0.3 0
7.8 0.3 0
8.1 0.3 0
8.4 0.3 0
8.7 0.3 0
9 0.3 0
9.3 0.3 0
9.6 0.3 0
9.9 0.3 0
10.2 0.3 0
10.5 0.3 0
10.8 0.3 0
11.1 0.3 0
11.4 0.3 0
11.7 0.3 0
12 0.3 0
12.3 0.3 0
12.6 0.3 0
12.9 0.3 0
13.2 0.3 0
13.5 0.3 0
13.8 0.3 0
14.1 0.3 0
14.4 0.3 0
14.7 0.3 0
15 0.3 0
15.3 0.3 0
15.6 0.3 0
15.9 0.3 0
16.2 0.3 0
16.5 0.3 0
16.8 0.3 0
17.1 0.3 0
17.4 0.3 0
17.7 0.3 0
18 0.3 0
18.3 0.3 0
18.6 0.3 0
18.9 0.3 0
19.2 0.3 0
19.5 0.3 0
19.8 0.3 0
20.1 0.3 0
20.4 0.3 0
20.7 0.3 0
21 0.3 0
21.3 0.3 0
21.6 0.3 0
21.9 0.3 0
22.2 0.3 0
22.5 0.3 0
22.8 0.3 0
23.1 0.3 0
23.4 0.3 0
23.7 0.3 0
24 0.3 0
24.3 0.3 0
24.6 0.3 0
24.9 0.3 0
25.2 0.3 0
25.5 0.3 0
25.8 0.3 0
26.1 0.3 0
26.4 0.3 0
26.7 0.3 0
27 0.3 0
27.3 0.3 0
27.6 0.3 0
27.9 0.3 0
28.2 0.3 0
28.5 0.3 0
28.8 0.3 0
29.1 0.3 0
29.4 0.3 0
29.7 0.3 0
30 0.3 0
30.3 0.3 0
0 0.4 0
0.3 0.4 0
0.6 0.4 0
0.9 0.4 0
1.2 0.4 0
1.5 0.4 0
1.8 0.4 0
2.1 0.4 0
2.4 0.4 0
2.7 0.4 0
3 0.4 0
3.3 0.4 0
3.6 0.4 0
3.9 0.4 0
4.2 0.4 0
4.5 0.4 0
4.8 0.4 0
5.1 0.4 0
5.4 0.4 0
5.7 0.4 0
6 0.4 0
6.3 0.4 0
6.6 0.4 0
6.9 0.4 0
7.2 0.4 0
7.5 0.4 0
7.8 0.4 0
8.1 0.4 0
8.4 0.4 0
8.7 0.4 0
9 0.4 0
9.3 0.4 0
9.6 0.4 0
9.9 0.4 0
10.2 0.4 0
10.5 0.4 0
10.8 0.4 0
11.1 0.4 0
11.4 0.4 0
11.7 0.4 0
12 0.4 0
12.3 0.4 0
12.6 0.4 0
12.9 0.4 0
13.2 0.4 0
13.5 0.4 0
13.8 0.4 0
14.1 0.4 0
14.4 0.4 0
14.7 0.4 0
15 0.4 0
15.3 0.4 0
15.6 0.4 0
15.9 0.4 0
16.2 0.4 0
16.5 0.4 0
16.8 0.4 0
17.1 0.4 0
17.4 0.4 0
17.7 0.4 0
18 0.4 0
18.3 0.4 0
18.6 0.4 0
18.9 0.4 0
19.2 0.4 0
19.5 0.4 0
19.8 0.4 0
20.1 0.4 0
20.4 0.4 0
20.7 0.4 0
21 0.4 0
21.3 0.4 0
21.6 0.4 0
21.9 0.4 0
22.2 0.4 0
22.5 0.4 0
22.8 0.4 0
23.1 0.4 0
23.4 0.4 0
23.7 0.4 0
24 0.4 0
24.3 0.4 0
24.6 0.4 0
24.9 0.4 0
25.2 0.4 0
25.5 0.4 0
25.8 0.4 0
26.1 0.4 0
26.4 0.4 0
26.7 0.4 0
27 0.4 0
27.3 0.4 0
27.6 0.4 0
27.9 0.4 0
28.2 0.4 0
28.5 0.4 0
28.8 0.4 0
29.1 0.4 0
29.4 0.4 0
29.7 0.4 0
30 0.4 0
30.3 0.4 0
0 0.5 0
0.3 0.5 0
0.6 0.5 0
0.9 0.5 0
1.2 0.5 0
1.5 0.5 0
1.8 0.5 0
2.1 0.5 0
2.4 0.5 0
2.7 0.5 0
3 0.5 0
3.3 0.5 0
3.6 0.5 0
3.9 0.5 0
4.2 0.5 0
4.5 0.5 0
4.8 0.5 0
5.1 0.5 0
5.4 0.5 0
5.7 0.5 0
6 0.5 0
6.3 0.5 0
6.6 0.5 0
6.9 0.5 0
7.2 0.5 0
7.5 0.5 0
7.8 0.5 0
8.1 0.5 0
8.4 0.5 0
8.7 0.5 0
9 0.5 0
9.3 0.5 0
9.6 0.5 0
9.9 0.5 0
10.2 0.5 0
10.5 0.5 0
10.8 0.5 0
11.1 0.5 0
11.4 0.5 0
11.7 0.5 0
12 0.5 0
12.3 0.5 0
12.6 0.5 0
12.9 0.5 0
13.2 0.5 0
13.5 0.5 0
13.8 0.5 0
14.1 0.5 0
14.4 0.5 0
14.7 0.5 0
15 0.5 0
15.3 0.5 0
15.6 0.5 0
15.9 0.5 0
16.2 0.5 0
16.5 0.5 0
16.8 0.5 0
17.1 0.5 0
17.4 0.5 0
17.7 0.5 0
18 0.5 0
18.3 0.5 0
18.6 0.5 0
18.9 0.5 0
19.2 0.5 0
19.5 0.5 0
19.8 0.5 0
20.1 0.5 0
20.4 0.5 0
20.7 0.5 0
21 0.5 0
21.3 0.5 0
21.6 0.5 0
21.9 0.5 0
22.2 0.5 0
22.5 0.5 0
22.8 0.5 0
23.1 0.5 0
23.4 0.5 0
23.7 0.5 0
24 0.5 0
24.3 0.5 0
24.6 0.5 0
24.9 0.5 0
25.2 0.5 0
25.5 0.5 0
25.8 0.5 0
26.1 0.5 0
26.4 0.5 0
26.7 0.5 0
27 0.5 0
27.3 0.5 0
27.6 0.5 0
27.9 0.5 0
28.2 0.5 0
28.5 0.5 0
28.8 0.5 0
29.1 0.5 0
29.4 0.5 0
29.7 0.5 0
30 0.5 0
30.3 0.5 0
0 0.6 0
0.3 0.6 0
0.6 0.6 0
0.9 0.6 0
1.2 0.6 0
1.5 0.6 0
1.8 0.6 0
2.1 0.6 0
2.4 0.6 0
2.7 0.6 0
3 0.6 0
3.3 0.6 0
3.6 0.6 0
3.9 0.6 0
4.2 0.6 0
4.5 0.6 0
4.8 0.6 0
5.1 0.6 0
5.4 0.6 0
5.7 0.6 0
6 0.6 0
6.3 0.6 0
6.6 0.6 0
6.9 0.6 0
7.2 0.6 0
7.5 0.6 0
7.8 0.6 0
8.1 0.6 0
8.4 0.6 0
8.7 0.6 0
9 0.6 0
9.3 0.6 0
9.6 0.6 0
9.9 0.6 0
10.2 0.6 0
10.5 0.6 0
10.8 0.6 0
11.1 0.6 0
11.4 0.6 0
11.7 0.6 0
12 0.6 0
12.3 0.6 0
12.6 0.6 0
12.9 0.6 0
13.2 0.6 0
13.5 0.6 0
13.8 0.6 0
14.1 0.6 0
14.4 0.6 0
14.7 0.6 0
15 0.6 0
15.3 0.6 0
15.6 0.6 0
15.9 0.6 0
16.2 0.6 0
16.5 0.6 0
16.8 0.6 0
17.1 0.6 0
17.4 0.6 0
17.7 0.6 0
18 0.6 0
18.3 0.6 0
18.6 0.6 0
18.9 0.6 0
19.2 0.6 0
19.5 0.6 0
19.8 0.6 0
20.1 0.6 0
20.4 0.6 0
20.7 0.6 0
21 0.6 0
21.3 0.6 0
21.6 0.6 0
21.9 0.6 0
22.2 0.6 0
22.5 0.6 0
22.8 0.6 0
23.1 0.6 0
23.4 0.6 0
23.7 0.6 0
24 0.6 0
24.3 0.6 0
24.6 0.6 0
24.9 0.6 0
25.2 0.6 0
25.5 0.6 0
25.8 0.6 0
26.1 0.6 0
26.4 0.6 0
26.7 0.6 0
27 0.6 0
27.3 0.6 0
27.6 0.6 0
27.9 0.6 0
28.2 0.6 0
28.5 0.6 0
28.8 0.6 0
29.1 0.6 0
29.4 0.6 0
29.7 0.6 0
30 0.6 0
30.3 0.6 0
0 0.7 0
0.3 0.7 0
0.6 0.7 0
0.9 0.7 0
1.2 0.7 0
1.5 0.7 0
1.8 0.7 0
2.1 0.7 0
2.4 0.7 0
2.7 0.7 0
3 0.7 0
3.3 0.7 0
3.6 0.7 0
3.9 0.7 0
4.2 0.7 0
4.5 0.7 0
4.8 0.7 0
5.1 0.7 0
5.4 0.7 0
5.7 0.7 0
6 0.7 0
6.3 0.7 0
6.6 0.7 0
6.9 0.7 0
7.2 0.7 0
7.5 0.7 0
7.8 0.7 0
8.1 0.7 0
8.4 0.7 0
8.7 0.7 0
9 0.7 0
9.3 0.7 0
9.6 0.7 0
9.9 0.7 0
10.2 0.7 0
10.5 0.7 0
10.8 0.7 0
11.1 0.7 0
11.4 0.7 0
11.7 0.7 0
12 0.7 0
12.3 0.7 0
12.6 0.7 0
12.9 0.7 0
13.2 0.7 0
13.5 0.7 0
13.8 0.7 0
14.1 0.7 0
14.4 0.7 0
14.7 0.7 0
15 0.7 0
15.3 0.7 0
15.6 0.7 0
15.9 0.7 0
16.2 0.7 0
16.5 0.7 0
16.8 0.7 0
17.1 0.7 0
17.4 0.7 0
17.7 0.7 0
18 0.7 0
18.3 0.7 0
18.6 0.7 0
18.9 0.7 0
19.2 0.7 0
19.5 0.7 0
19.8 0.7 0
20.1 0.7 0
20.4 0.7 0
20.7 0.7 0
21 0.7 0
21.3 0.7 0
21.6 0.7 0
21.9 0.7 0
22.2 0.7 0
22.5 0.7 0
22.8 0.7 0
23.1 0.7 0
23.4 0.7 0
23.7 0.7 0
24 0.7 0
24.3 0.7 0
24.6 0.7 0
24.9 0.7 0
25.2 0.7 0
25.5 0.7 0
25.8 0.7 0
26.1 0.7 0
26.4 0.7 0
26.7 0.7 0
27 0.7 0
27.3 0.7 0
27.6 0.7 0
27.9 0.7 0
28.2 0.7 0
28.5 0.7 0
28.8 0.7 0
29.1 0.7 0
29.4 0.7 0
29.7 0.7 0
30 0.7 0
30.3 0.7 0
0 0.8 0
0.3 0.8 0
0.6 0.8 0
0.9 0.8 0
1.2 0.8 0
1.5 0.8 0
1.8 0.8 0
2.1 0.8 0
2.4 0.8 0
2.7 0.8 0
3 0.8 0
3.3 0.8 0
3.6 0.8 0
3.9 0.8 0
4.2 0.8 0
4.5 0.8 0
4.8 0.8 0
5.1 0.8 0
5.4 0.8 0
5.7 0.8 0
6 0.8 0
6.3 0.8 0
6.6 0.8 0
6.9 0.8 0
7.2 0.8 0
7.5 0.8 0
7.8 0.8 0
8.1 0.8 0
8.4 0.8 0
8.7 0.8 0
9 0.8 0
9.3 0.8 0
9.6 0.8 0
9.9 0.8 0
10.2 0.8 0
10.5 0.8 0
10.8 0.8 0
11.1 0.8 0
11.4 0.8 0
11.7 0.8 0
12 0.8 0
12.3 0.8 0
12.6 0.8 0
12.9 0.8 0
13.2 0.8 0
13.5 0.8 0
13.8 0.8 0
14.1 0.8 0
14.4 0.8 0
14.7 0.8 0
15 0.8 0
15.3 0.8 0
15.6 0.8 0
15.9 0.8 0
16.2 0.8 0
16.5 0.8 0
16.8 0.8 0
17.1 0.8 0
17.4 0.8 0
17.7 0.8 0
18 0.8 0
18.3 0.8 0
18.6 0.8 0
18.9 0.8 0
19.2 0.8 0
19.5 0.8 0
19.8 0.8 0
20.1 0.8 0
20.4 0.8 0
20.7 0.8 0
21 0.8 0
21.3 0.8 0
21.6 0.8 0
21.9 0.8 0
22.2 0.8 0
22.5 0.8 0
22.8 0.8 0
23.1 0.8 0
23.4 0.8 0
23.7 0.8 0
24 0.8 0
24.3 0.8 0
24.6 0.8 0
24.9 0.8 0
25.2 0.8 0
25.5 0.8 0
25.8 0.8 0
26.1 0.8 0
26.4 0.8 0
26.7 0.8 0
27 0.8 0
27.3 0.8 0
27.6 0.8 0
27.9 0.8 0
28.2 0.8 0
28.5 0.8 0
28.8 0.8 0
29.1 0.8 0
29.4 0.8 0
29.7 0.8 0
30 0.8 0
30.3 0.8 0
0 0.9 0
0.3 0.9 0
0.6 0.9 0
0.9 0.9 0
1.2 0.9 0
1.5 0.9 0
1.8 0.9 0
2.1 0.9 0
2.4 0.9 0
2.7 0.9 0
3 0.9 0
3.3 0.9 0
3.6 0.9 0
3.9 0.9 0
4.2 0.9 0
4.5 0.9 0
4.8 0.9 0
5.1 0.9 0
5.4 0.9 0
5.7 0.9 0
6 0.9 0
6.3 0.9 0
6.6 0.9 0
6.9 0.9 0
7.2 0.9 0
7.5 0.9 0
7.8 0.9 0
8.1 0.9 0
8.4 0.9 0
8.7 0.9 0
9 0.9 0
9.3 0.9 0
9.6 0.9 0
9.9 0.9 0
10.2 0.9 0
10.5 0.9 0
10.8 0.9 0
11.1 0.9 0
11.4 0.9 0
11.7 0.9 0
12 0.9 0
12.3 0.9 0
12.6 0.9 0
12.9 0.9 0
13.2 0.9 0
13.5 0.9 0
13.8 0.9 0
14.1 0.9 0
14.4 0.9 0
14.7 0.9 0
15 0.9 0
15.3 0.9 0
15.6 0.9 0
15.9 0.9 0
16.2 0.9 0
16.5 0.9 0
16.8 0.9 0
17.1 0.9 0
17.4 0.9 0
17.7 0.9 0
18 0.9 0
18.3 0.9 0
18.6 0.9 0
18.9 0.9 0
19.2 0.9 0
19.5 0.9 0
19.8 0.9 0
20.1 0.9 0
20.4 0.9 0
20.7 0.9 0
21 0.9 0
21.3 0.9 0
21.6 0.9 0
21.9 0.9 0
22.2 0.9 0
22.5 0.9 0
22.8 0.9 0
23.1 0.9 0
23.4 0.9 0
23.7 0.9 0
24 0.9 0
24.3 0.9 0
24.6 0.9 0
24.9 0.9 0
25.2 0.9 0
25.5 0.9 0
25.8 0.9 0
26.1 0.9 0
26.4 0.9 0
26.7 0.9 0
27 0.9 0
27.3 0.9 0
27.6 0.9 0
27.9 0.9 0
28.2 0.9 0
28.5 0.9 0
28.8 0.9 0
29.1 0.9 0
29.4 0.9 0
29.7 0.9 0
30 0.9 0
30.3 0.9 0
0 1 0
0.3 1 0
0.6 1 0
0.9 1 0
1.2 1 0
1.5 1 0
1.8 1 0
2.1 1 0
2.4 1 0
2.7 1 0
3 1 0
3.3 1 0
3.6 1 0
3.9 1 0
4.2 1 0
4.5 1 0
4.8 1 0
5.1 1 0
5.4 1 0
5.7 1 0
6 1 0
6.3 1 0
6.6 1 0
6.9 1 0
7.2 1 0
7.5 1 0
7.8 1 0
8.1 1 0
8.4 1 0
8.7 1 0
9 1 0
9.3 1 0
9.6 1 0
9.9 1 0
10.2 1 0
10.5 1 0
10.8 1 0
11.1 1 0
11.4 1 0
11.7 1 0
12 1 0
12.3 1 0
12.6 1 0
12.9 1 0
13.2 1 0
13.5 1 0
13.8 1 0
14.1 1 0
14.4 1 0
14.7 1 0
15 1 0
15.3 1 0
15.6 1 0
15.9 1 0
16.2 1 0
16.5 1 0
16.8 1 0
17.1 1 0
17.4 1 0
17.7 1 0
18 1 0
18.3 1 0
18.6 1 0
18.9 1 0
19.2 1 0
19.5 1 0
19.8 1 0
20.1 1 0
20.4 1 0
20.7 1 0
21 1 0
21.3 1 0
21.6 1 0
21.9 1 0
22.2 1 0
22.5 1 0
22.8 1 0
23.1 1 0
23.4 1 0
23.7 1 0
24 1 0
24.3 1 0
24.6 1 0
24.9 1 0
25.2 1 0
25.5 1 0
25.8 1 0
26.1 1 0
26.4 1 0
26.7 1 0
27 1 0
27.3 1 0
27.6 1 0
27.9 1 0
28.2 1 0
28.5 1 0
28.8 1 0
29.1 1 0
29.4 1 0
29.7 1 0
30 1 0
30.3 1 0
0 1.1 0
0.3 1.1 0
0.6 1.1 0
0.9 1.1 0
1.2 1.1 0
1.5 1.1 0
1.8 1.1 0
2.1 1.1 0
2.4 1.1 0
2.7 1.1 0
3 1.1 0
3.3 1.1 0
3.6 1.1 0
3.9 1.1 0
4.2 1.1 0
4.5 1.1 0
4.8 1.1 0
5.1 1.1 0
5.4 1.1 0
5.7 1.1 0
6 1.1 0
6.3 1.1 0
6.6 1.1 0
6.9 1.1 0
7.2 1.1 0
7.5 1.1 0
7.8 1.1 0
8.1 1.1 0
8.4 1.1 0
8.7 1.1 0
9 1.1 0
9.3 1.1 0
9.6 1.1 0
9.9 1.1 0
10.2 1.1 0
10.5 1.1 0
10.8 1.1 0
11.1 1.1 0
11.4 1.1 0
11.7 1.1 0
12 1.1 0
12.3 1.1 0
12.6 1.1 0
12.9 1.1 0
13.2 1.1 0
13.5 1.1 0
13.8 1.1 0
14.1 1.1 0
14.4 1.1 0
14.7 1.1 0
15 1.1 0
15.3 1.1 0
15.6 1.1 0
15.9 1.1 0
16.2 1.1 0
16.5 1.1 0
16.8 1.1 0
17.1 1.1 0
17.4 1.1 0
17.7 1.1 0
18 1.1 0
18.3 1.1 0
18.6 1.1 0
18.9 1.1 0
19.2 1.1 0
19.5 1.1 0
19.8 1.1 0
20.1 1.1 0
20.4 1.1 0
20.7 1.1 0
21 1.1 0
21.3 1.1 0
21.6 1.1 0
21.9 1.1 0
22.2 1.1 0
22.5 1.1 0
22.8 1.1 0
23.1 1.1 0
23.4 1.1 0
23.7 1.1 0
24 1.1 0
24.3 1.1 0
24.6 1.1 0
24.9 1.1 0
25.2 1.1 0
25.5 1.1 0
25.8 1.1 0
26.1 1.1 0
26.4 1.1 0
26.7 1.1 0
27 1.1 0
27.3 1.1 0
27.6 1.1 0
27.9 1.1 0
28.2 1.1 0
28.5 1.1 0
28.8 1.1 0
29.1 1.1 0
29.4 1.1 0
29.7 1.1 0
30 1.1 0
30.3 1.1 0

POINT_DATA 1224

VECTORS velocity double
LOOKUP_TABLE default
-1 0 0
-0.89539 0 0
-0.820033 0 0
-0.786919 0 0
-0.776248 0 0
-0.77355 0 0
-0.772997 0 0
-0.772905 0 0
-0.772894 0 0
-0.772893 0 0
-0.772893 0 0
-0.772893 0 0
-0.772894 0 0
-0.772894 0 0
-0.772894 0 0
-0.772894 0 0
-0.772894 0 0
-0.772894 0 0
-0.772894 0 0
-0.772895 0 0
-0.772895 0 0
-0.772895 0 0
-0.772895 0 0
-0.772895 0 0
-0.772895 0 0
-0.772895 0 0
-0.772895 0 0
-0.772895 0 0
-0.772895 0 0
-0.772895 0 0
-0.772895 0 0
-0.772895 0 0
-0.772895 0 0
-0.772895 0 0
-0.772895 0 0
-0.772895 0 0
-0.772895 0 0
-0.772895 0 0
-0.772895 0 0
-0.772895 0 0
-0.772895 0 0
-0.772895 0 0
-0.772895 0 0
-0.772894 0 0
-0.772894 0 0
-0.772894 0 0
-0.772894 0 0
-0.772894 0 0
-0.772894 0 0
-0.772893 0 0
-0.772893 0 0
-0.772893 0 0
-0.772893 0 0
-0.772893 0 0
-0.772892 0 0
-0.772892 0 0
-0.772892 0 0
-0.772891 0 0
-0.772891 0 0
-0.772891 0 0
-0.772891 0 0
-0.77289 0 0
-0.77289 0 0
-0.77289 0 0
-0.772889 0 0
-0.772889 0 0
-0.772888 0 0
-0.772888 0 0
-0.772888 0 0
-0.772887 0 0
-0.772887 0 0
-0.772886 0 0
-0.772886 0 0
-0.772886 0 0
-0.772885 0 0
-0.772885 0 0
-0.772884 0 0
-0.772884 0 0
-0.772883 0 0
-0.772883 0 0
-0.772882 0 0
-0.772882 0 0
-0.772881 0 0
-0.772881 0 0
-0.772881 0 0
-0.77288 0 0
-0.77288 0 0
-0.772879 0 0
-0.772879 0 0
-0.772878 0 0
-0.772878 0 0
-0.772877 0 0
-0.772877 0 0
-0.772876 0 0
-0.772876 0 0
-0.772877 0 0
-0.772882 0 0
-0.772925 0 0
-0.772983 0 0
-0.774702 0 0
-0.774702 0 0
-1 0 0
1 -0.03487 0
0.89539 0.03487 0
0.820033 0.0251191 0
0.786919 0.0110378 0
0.776248 0.00355697 0
0.77355 0.000899425 0
0.772997 0.000184305 0
0.772905 3.06493e-05 0
0.772894 3.883e-06 0
0.772893 2.18809e-07 0
0.772893 -1.10121e-07 0
0.772893 -9.49272e-08 0
0.772894 -7.9732e-08 0
0.772894 -7.56775e-08 0
0.772894 -7.53946e-08 0
0.772894 -7.61108e-08 0
0.772894 -7.71264e-08 0
0.772894 -7.82894e-08 0
0.772894 -7.95686e-08 0
0.772895 -8.0957e-08 0
0.772895 -8.2452e-08 0
0.772895 -8.40518e-08 0
0.772895 -8.57543e-08 0
0.772895 -8.75588e-08 0
0.772895 -8.94639e-08 0
0.772895 -9.1468e-08 0
0.772895 -9.35669e-08 0
0.772895 -9.57572e-08 0
0.772895 -9.80362e-08 0
0.772895 -1.00402e-07 0
0.772895 -1.02852e-07 0
0.772895 -1.05385e-07 0
0.772895 -1.07997e-07 0
0.772895 -1.10686e-07 0
0.772895 -1.1345e-07 0
0.772895 -1.16285e-07 0
0.772895 -1.1919e-07 0
0.772895 -1.22165e-07 0
0.772895 -1.25207e-07 0
0.772895 -1.28308e-07 0
0.772895 -1.31463e-07 0
0.772895 -1.34668e-07 0
0.772895 -1.37923e-07 0
0.772894 -1.41226e-07 0
0.772894 -1.44572e-07 0
0.772894 -1.47964e-07 0
0.772894 -1.51399e-07 0
0.772894 -1.54869e-07 0
0.772894 -1.58356e-07 0
0.772893 -1.61919e-07 0
0.772893 -1.65532e-07 0
0.772893 -1.69196e-07 0
0.772893 -1.72892e-07 0
0.772893 -1.76572e-07 0
0.772892 -1.80222e-07 0
0.772892 -1.83867e-07 0
0.772892 -1.87515e-07 0
0.772891 -1.9117e-07 0
0.772891 -1.94825e-07 0
0.772891 -1.9847e-07 0
0.772891 -2.02098e-07 0
0.77289 -2.0571e-07 0
0.77289 -2.09306e-07 0
0.77289 -2.12883e-07 0
0.772889 -2.16438e-07 0
0.772889 -2.19969e-07 0
0.772888 -2.23472e-07 0
0.772888 -2.26944e-07 0
0.772888 -2.30381e-07 0
0.772887 -2.3378e-07 0
0.772887 -2.37138e-07 0
0.772886 -2.40451e-07 0
0.772886 -2.43715e-07 0
0.772886 -2.46929e-07 0
0.772885 -2.50088e-07 0
0.772885 -2.53189e-07 0
0.772884 -2.56229e-07 0
0.772884 -2.59204e-07 0
0.772883 -2.62112e-07 0
0.772883 -2.64952e-07 0
0.772882 -2.67717e-07 0
0.772882 -2.70405e-07 0
0.772881 -2.73013e-07 0
0.772881 -2.75539e-07 0
0.772881 -2.77979e-07 0
0.77288 -2.80331e-07 0
0.77288 -2.82593e-07 0
0.772879 -2.84764e-07 0
0.772879 -2.86843e-07 0
0.772878 -2.88846e-07 0
0.772878 -2.90852e-07 0
0.772877 -2.9325e-07 0
0.772877 -2.97939e-07 0
0.772876 -3.14288e-07 0
0.772876 -3.86759e-07 0
0.772877 -7.62236e-07 0
0.772882 -2.17332e-06 0
0.772925 -1.49186e-05 0
0.772983 -1.97344e-05 0
0.774702 -0.000573388 0
0.774702 -0.00108905 0
1 -0.00108905 0
1 -0.0256352 0
1.0277 0.0256352 0
1.03663 0.0221438 0
1.0386 0.0103808 0
1.03879 0.00349424 0
1.03873 0.000919457 0
1.03869 0.000196183 0
1.03868 3.40717e-05 0
1.03868 4.54682e-06 0
1.03868 2.99732e-07 0
1.03868 -1.02903e-07 0
1.03868 -9.23501e-08 0
1.03868 -7.48104e-08 0
1.03868 -6.94566e-08 0
1.03868 -6.87209e-08 0
1.03868 -6.92887e-08 0
1.03868 -7.02471e-08 0
1.03868 -7.13829e-08 0
1.03868 -7.26497e-08 0
1.03868 -7.40372e-08 0
1.03868 -7.55419e-08 0
1.03868 -7.71618e-08 0
1.03868 -7.8895e-08 0
1.03868 -8.07397e-08 0
1.03868 -8.2694e-08 0
1.03868 -8.47561e-08 0
1.03868 -8.6924e-08 0
1.03868 -8.91951e-08 0
1.03868 -9.15656e-08 0
1.03868 -9.40325e-08 0
1.03868 -9.65933e-08 0
1.03868 -9.92456e-08 0
1.03868 -1.01987e-07 0
1.03868 -1.04814e-07 0
1.03868 -1.07724e-07 0
1.03868 -1.10715e-07 0
1.03868 -1.13783e-07 0
1.03868 -1.16927e-07 0
1.03868 -1.2014e-07 0
1.03868 -1.2342e-07 0
1.03868 -1.26764e-07 0
1.03868 -1.3017e-07 0
1.03868 -1.33635e-07 0
1.03868 -1.37155e-07 0
1.03868 -1.40728e-07 0
1.03868 -1.44348e-07 0
1.03868 -1.48013e-07 0
1.03868 -1.51717e-07 0
1.03868 -1.55465e-07 0
1.03868 -1.59253e-07 0
1.03868 -1.6307e-07 0
1.03868 -1.66912e-07 0
1.03868 -1.70769e-07 0
1.03868 -1.74639e-07 0
1.03868 -1.78528e-07 0
1.03867 -1.82435e-07 0
1.03867 -1.86357e-07 0
1.03867 -1.90285e-07 0
1.03867 -1.94216e-07 0
1.03867 -1.98144e-07 0
1.03867 -2.02068e-07 0
1.03867 -2.05986e-07 0
1.03867 -2.09893e-07 0
1.03867 -2.13785e-07 0
1.03867 -2.17658e-07 0
1.03867 -2.21509e-07 0
1.03867 -2.25334e-07 0
1.03867 -2.2913e-07 0
1.03867 -2.32892e-07 0
1.03867 -2.36617e-07 0
1.03867 -2.40302e-07 0
1.03867 -2.43942e-07 0
1.03867 -2.47535e-07 0
1.03867 -2.51077e-07 0
1.03867 -2.54563e-07 0
1.03867 -2.57991e-07 0
1.03867 -2.61357e-07 0
1.03867 -2.64657e-07 0
1.03867 -2.67889e-07 0
1.03867 -2.71048e-07 0
1.03867 -2.74131e-07 0
1.03867 -2.77134e-07 0
1.03867 -2.80056e-07 0
1.03867 -2.82892e-07 0
1.03866 -2.85639e-07 0
1.03866 -2.88295e-07 0
1.03866 -2.90856e-07 0
1.03866 -2.93322e-07 0
1.03866 -2.95695e-07 0
1.03866 -2.98e-07 0
1.03866 -3.00357e-07 0
1.03866 -3.03364e-07 0
1.03866 -3.09924e-07 0
1.03866 -3.34252e-07 0
1.03866 -4.45434e-07 0
1.03866 -9.89268e-07 0
1.03866 -3.49607e-06 0
1.03867 -1.79312e-05 0
1.0388 -6.18064e-05 0
1.0387 -0.000539001 0
1.0387 -0.00100872 0
1 -0.00100872 0
1 -0.0154978 0
1.03041 0.0154978 0
1.0512 0.0152145 0
1.05929 0.00768559 0
1.06145 0.00277135 0
1.06186 0.000783926 0
1.0619 0.000181441 0
1.0619 3.48773e-05 0
1.0619 5.45708e-06 0
1.0619 5.99556e-07 0
1.0619 -1.82535e-08 0
1.0619 -5.96521e-08 0
1.0619 -5.26158e-08 0
1.0619 -4.92534e-08 0
1.0619 -4.90149e-08 0
1.0619 -4.98635e-08 0
1.0619 -5.10909e-08 0
1.0619 -5.25122e-08 0
1.0619 -5.4084e-08 0
1.0619 -5.57956e-08 0
1.0619 -5.76434e-08 0
1.0619 -5.96246e-08 0
1.0619 -6.1737e-08 0
1.0619 -6.39784e-08 0
1.0619 -6.63464e-08 0
1.0619 -6.88393e-08 0
1.0619 -7.14554e-08 0
1.0619 -7.41911e-08 0
1.0619 -7.70411e-08 0
1.0619 -8.00017e-08 0
1.0619 -8.30701e-08 0
1.0619 -8.62435e-08 0
1.0619 -8.95188e-08 0
1.0619 -9.28928e-08 0
1.0619 -9.6362e-08 0
1.0619 -9.99232e-08 0
1.0619 -1.03573e-07 0
1.0619 -1.07308e-07 0
1.0619 -1.11122e-07 0
1.0619 -1.15012e-07 0
1.06189 -1.18976e-07 0
1.06189 -1.2301e-07 0
1.06189 -1.2711e-07 0
1.06189 -1.31273e-07 0
1.06189 -1.35495e-07 0
1.06189 -1.39769e-07 0
1.06189 -1.44093e-07 0
1.06189 -1.48461e-07 0
1.06189 -1.52876e-07 0
1.06189 -1.57328e-07 0
1.06189 -1.6181e-07 0
1.06189 -1.66317e-07 0
1.06189 -1.70841e-07 0
1.06189 -1.75385e-07 0
1.06189 -1.79952e-07 0
1.06189 -1.84538e-07 0
1.06189 -1.89136e-07 0
1.06189 -1.93738e-07 0
1.06189 -1.98339e-07 0
1.06189 -2.02937e-07 0
1.06189 -2.07529e-07 0
1.06189 -2.1211e-07 0
1.06189 -2.16676e-07 0
1.06189 -2.21221e-07 0
1.06189 -2.25742e-07 0
1.06189 -2.30234e-07 0
1.06189 -2.34693e-07 0
1.06189 -2.39114e-07 0
1.06189 -2.43494e-07 0
1.06189 -2.47827e-07 0
1.06189 -2.5211e-07 0
1.06189 -2.56339e-07 0
1.06189 -2.60509e-07 0
1.06189 -2.64617e-07 0
1.06189 -2.68657e-07 0
1.06189 -2.72626e-07 0
1.06189 -2.7652e-07 0
1.06188 -2.80335e-07 0
1.06188 -2.84067e-07 0
1.06188 -2.87711e-07 0
1.06188 -2.91263e-07 0
1.06188 -2.94721e-07 0
1.06188 -2.9808e-07 0
1.06188 -3.01336e-07 0
1.06188 -3.04487e-07 0
1.06188 -3.07528e-07 0
1.06188 -3.10457e-07 0
1.06188 -3.13272e-07 0
1.06188 -3.15975e-07 0
1.06188 -3.18591e-07 0
1.06188 -3.21236e-07 0
1.06188 -3.24482e-07 0
1.06188 -3.31101e-07 0
1.06188 -3.54603e-07 0
1.06188 -4.60889e-07 0
1.06188 -9.71405e-07 0
1.06188 -3.41793e-06 0
1.06187 -1.55823e-05 0
1.06188 -6.51434e-05 0
1.06135 -0.000362247 0
1.06135 -0.00068781 0
1 -0.00068781 0
1 -0.00726003 0
1.02471 0.00726003 0
1.04733 0.00767542 0
1.05822 0.00405623 0
1.06197 0.00152247 0
1.06297 0.0004482 0
1.06319 0.000108209 0
1.06323 2.18298e-05 0
1.06324 3.64509e-06 0
1.06324 4.58677e-07 0
1.06324 1.19049e-08 0
1.06324 -2.94653e-08 0
1.06324 -2.85645e-08 0
1.06324 -2.75212e-08 0
1.06324 -2.80687e-08 0
1.06324 -2.93084e-08 0
1.06324 -3.08532e-08 0
1.06324 -3.2593e-08 0
1.06324 -3.44998e-08 0
1.06324 -3.65658e-08 0
1.06324 -3.87874e-08 0
1.06324 -4.11615e-08 0
1.06324 -4.36853e-08 0
1.06324 -4.63563e-08 0
1.06324 -4.91717e-08 0
1.06324 -5.21301e-08 0
1.06324 -5.52297e-08 0
1.06324 -5.8466e-08 0
1.06324 -6.18318e-08 0
1.06324 -6.53225e-08 0
1.06323 -6.89354e-08 0
1.06323 -7.26673e-08 0
1.06323 -7.65146e-08 0
1.06323 -8.04735e-08 0
1.06323 -8.454e-08 0
1.06323 -8.87103e-08 0
1.06323 -9.29808e-08 0
1.06323 -9.73467e-08 0
1.06323 -1.01803e-07 0
1.06323 -1.06344e-07 0
1.06323 -1.10967e-07 0
1.06323 -1.15669e-07 0
1.06323 -1.20445e-07 0
1.06323 -1.25291e-07 0
1.06323 -1.30201e-07 0
1.06323 -1.3517e-07 0
1.06323 -1.40192e-07 0
1.06323 -1.45265e-07 0
1.06323 -1.50386e-07 0
1.06323 -1.55546e-07 0
1.06323 -1.60742e-07 0
1.06323 -1.65968e-07 0
1.06323 -1.71218e-07 0
1.06323 -1.76489e-07 0
1.06323 -1.8178e-07 0
1.06323 -1.87085e-07 0
1.06323 -1.92398e-07 0
1.06323 -1.97713e-07 0
1.06323 -2.03025e-07 0
1.06323 -2.0833e-07 0
1.06323 -2.13624e-07 0
1.06323 -2.18902e-07 0
1.06323 -2.2416e-07 0
1.06323 -2.2939e-07 0
1.06323 -2.34589e-07 0
1.06323 -2.39751e-07 0
1.06323 -2.44872e-07 0
1.06323 -2.49947e-07 0
1.06323 -2.54971e-07 0
1.06323 -2.59938e-07 0
1.06323 -2.64845e-07 0
1.06323 -2.69686e-07 0
1.06322 -2.74456e-07 0
1.06322 -2.79151e-07 0
1.06322 -2.83766e-07 0
1.06322 -2.88296e-07 0
1.06322 -2.92736e-07 0
1.06322 -2.97082e-07 0
1.06322 -3.01329e-07 0
1.06322 -3.05473e-07 0
1.06322 -3.09508e-07 0
1.06322 -3.13432e-07 0
1.06322 -3.17239e-07 0
1.06322 -3.20925e-07 0
1.06322 -3.24487e-07 0
1.06322 -3.2792e-07 0
1.06322 -3.31222e-07 0
1.06322 -3.34389e-07 0
1.06322 -3.37422e-07 0
1.06322 -3.40336e-07 0
1.06322 -3.43204e-07 0
1.06322 -3.46375e-07 0
1.06322 -3.51523e-07 0
1.06322 -3.66751e-07 0
1.06322 -4.31593e-07 0
1.06322 -7.38081e-07 0
1.06321 -2.21381e-06 0
1.06319 -9.1894e-06 0
1.06311 -3.95062e-05 0
1.06257 -0.000179964 0
1.06257 -0.000344812 0
1 -0.000344812 0
1 -1.62853e-07 0
1.02178 1.62853e-07 0
1.04481 -5.39867e-08 0
1.05698 -4.37632e-07 0
1.06154 -5.04004e-07 0
1.06289 -3.48306e-07 0
1.06322 -1.81092e-07 0
1.06328 -7.89076e-08 0
1.06329 -3.11409e-08 0
1.06329 -1.21967e-08 0
1.06329 -5.71431e-09 0
1.06329 -4.17838e-09 0
1.06329 -4.50361e-09 0
1.06329 -5.57309e-09 0
1.06329 -7.00755e-09 0
1.06329 -8.68284e-09 0
1.06329 -1.05587e-08 0
1.06329 -1.26215e-08 0
1.06329 -1.48656e-08 0
1.06329 -1.72878e-08 0
1.06329 -1.98849e-08 0
1.06329 -2.26536e-08 0
1.06329 -2.55904e-08 0
1.06329 -2.86929e-08 0
1.06329 -3.19574e-08 0
1.06329 -3.5383e-08 0
1.06329 -3.89681e-08 0
1.06329 -4.27075e-08 0
1.06329 -4.65911e-08 0
1.06329 -5.06138e-08 0
1.06329 -5.47731e-08 0
1.06329 -5.90655e-08 0
1.06329 -6.34868e-08 0
1.06329 -6.80327e-08 0
1.06329 -7.26985e-08 0
1.06329 -7.74798e-08 0
1.06329 -8.23729e-08 0
1.06329 -8.73724e-08 0
1.06329 -9.24722e-08 0
1.06329 -9.76666e-08 0
1.06329 -1.02951e-07 0
1.06329 -1.08323e-07 0
1.06329 -1.13777e-07 0
1.06329 -1.19308e-07 0
1.06329 -1.24909e-07 0
1.06329 -1.30574e-07 0
1.06329 -1.36298e-07 0
1.06329 -1.42077e-07 0
1.06329 -1.47905e-07 0
1.06329 -1.53778e-07 0
1.06329 -1.5969e-07 0
1.06329 -1.65638e-07 0
1.06329 -1.71617e-07 0
1.06329 -1.77619e-07 0
1.06329 -1.83636e-07 0
1.06329 -1.89663e-07 0
1.06329 -1.95694e-07 0
1.06329 -2.01724e-07 0
1.06329 -2.07748e-07 0
1.06329 -2.13762e-07 0
1.06329 -2.19761e-07 0
1.06329 -2.25738e-07 0
1.06328 -2.31689e-07 0
1.06328 -2.37606e-07 0
1.06328 -2.43484e-07 0
1.06328 -2.49318e-07 0
1.06328 -2.55103e-07 0
1.06328 -2.60833e-07 0
1.06328 -2.66502e-07 0
1.06328 -2.72105e-07 0
1.06328 -2.77636e-07 0
1.06328 -2.8309e-07 0
1.06328 -2.88462e-07 0
1.06328 -2.93745e-07 0
1.06328 -2.98935e-07 0
1.06328 -3.04027e-07 0
1.06328 -3.09014e-07 0
1.06328 -3.13892e-07 0
1.06328 -3.18655e-07 0
1.06328 -3.23299e-07 0
1.06328 -3.27818e-07 0
1.06328 -3.32208e-07 0
1.06328 -3.36463e-07 0
1.06328 -3.4058e-07 0
1.06328 -3.44553e-07 0
1.06328 -3.48379e-07 0
1.06328 -3.52053e-07 0
1.06328 -3.55571e-07 0
1.06328 -3.58932e-07 0
1.06328 -3.62136e-07 0
1.06328 -3.65187e-07 0
1.06327 -3.68097e-07 0
1.06327 -3.7087e-07 0
1.06327 -3.73431e-07 0
1.06327 -3.7533e-07 0
1.06327 -3.76338e-07 0
1.06327 -3.77642e-07 0
1.06324 -3.78683e-07 0
1.06312 -3.78741e-07 0
1.06258 -3.76393e-07 0
1.06258 -3.70234e-07 0
1 -3.70234e-07 0
1 0.00725973 0
1.02178 -0.00725973 0
1.04481 -0.00767558 0
1.05698 -0.00405711 0
1.06155 -0.00152346 0
1.06289 -0.000448868 0
1.06322 -0.000108552 0
1.06328 -2.19784e-05 0
1.06329 -3.7035e-06 0
1.06329 -4.81587e-07 0
1.06329 -2.2794e-08 0
1.06329 2.12885e-08 0
1.06329 1.96111e-08 0
1.06329 1.63865e-08 0
1.06329 1.40514e-08 0
1.06329 1.19362e-08 0
1.06329 9.72801e-09 0
1.06329 7.34188e-09 0
1.06329 4.76034e-09 0
1.06329 1.98197e-09 0
1.06329 -9.9073e-10 0
1.06329 -4.15413e-09 0
1.06329 -7.50399e-09 0
1.06329 -1.10379e-08 0
1.06329 -1.47511e-08 0
1.06329 -1.86435e-08 0
1.06329 -2.27143e-08 0
1.06329 -2.69574e-08 0
1.06329 -3.13588e-08 0
1.06329 -3.59133e-08 0
1.06329 -4.06189e-08 0
1.06329 -4.54717e-08 0
1.06329 -5.04668e-08 0
1.06329 -5.55996e-08 0
1.06329 -6.08647e-08 0
1.06329 -6.62568e-08 0
1.06329 -7.17723e-08 0
1.06329 -7.74055e-08 0
1.06329 -8.3149e-08 0
1.06329 -8.89965e-08 0
1.06329 -9.49426e-08 0
1.06329 -1.00984e-07 0
1.06329 -1.07116e-07 0
1.06329 -1.13332e-07 0
1.06329 -1.19624e-07 0
1.06329 -1.25985e-07 0
1.06329 -1.3241e-07 0
1.06329 -1.38895e-07 0
1.06329 -1.45431e-07 0
1.06329 -1.52014e-07 0
1.06329 -1.58643e-07 0
1.06329 -1.65314e-07 0
1.06329 -1.72021e-07 0
1.06329 -1.78754e-07 0
1.06329 -1.85498e-07 0
1.06329 -1.92246e-07 0
1.06329 -1.98994e-07 0
1.06329 -2.05739e-07 0
1.06329 -2.12475e-07 0
1.06329 -2.19198e-07 0
1.06329 -2.25901e-07 0
1.06329 -2.32578e-07 0
1.06328 -2.39221e-07 0
1.06328 -2.45824e-07 0
1.06328 -2.52382e-07 0
1.06328 -2.58888e-07 0
1.06328 -2.65336e-07 0
1.06328 -2.71721e-07 0
1.06328 -2.78035e-07 0
1.06328 -2.84273e-07 0
1.06328 -2.90429e-07 0
1.06328 -2.96496e-07 0
1.06328 -3.02468e-07 0
1.06328 -3.0834e-07 0
1.06328 -3.14105e-07 0
1.06328 -3.19758e-07 0
1.06328 -3.25292e-07 0
1.06328 -3.30701e-07 0
1.06328 -3.35981e-07 0
1.06328 -3.41124e-07 0
1.06328 -3.46127e-07 0
1.06328 -3.50982e-07 0
1.06328 -3.55686e-07 0
1.06328 -3.60233e-07 0
1.06328 -3.64617e-07 0
1.06328 -3.68834e-07 0
1.06328 -3.7288e-07 0
1.06328 -3.7675e-07 0
1.06328 -3.80439e-07 0
1.06328 -3.83931e-07 0
1.06328 -3.87164e-07 0
1.06327 -3.8981e-07 0
1.06327 -3.90217e-07 0
1.06327 -3.80159e-07 0
1.06327 -3.19145e-07 0
1.06327 -1.4545e-08 0
1.06327 1.45852e-06 0
1.06324 8.43192e-06 0
1.06312 3.87486e-05 0
1.06258 0.000179211 0
1.06258 0.000344071 0
1 0.000344071 0
1 0.0154976 0
1.02471 -0.0154976 0
1.04733 -0.0152148 0
1.05822 -0.0076865 0
1.06197 -0.00277225 0
1.06297 -0.000784508 0
1.06319 -0.000181729 0
1.06323 -3.49989e-05 0
1.06324 -5.50423e-06 0
1.06324 -6.1821e-07 0
1.06324 8.88572e-09 0
1.06324 5.19663e-08 0
1.06324 4.37943e-08 0
1.06324 3.81298e-08 0
1.06324 3.49684e-08 0
1.06324 3.24484e-08 0
1.06324 2.99174e-08 0
1.06324 2.72101e-08 0
1.06324 2.42917e-08 0
1.06324 2.11574e-08 0
1.06324 1.78093e-08 0
1.06324 1.42515e-08 0
1.06324 1.04894e-08 0
1.06324 6.52497e-09 0
1.06324 2.36473e-09 0
1.06324 -1.99278e-09 0
1.06324 -6.54806e-09 0
1.06324 -1.12944e-08 0
1.06324 -1.62125e-08 0
1.06323 -2.12973e-08 0
1.06323 -2.65479e-08 0
1.06323 -3.19596e-08 0
1.06323 -3.75273e-08 0
1.06323 -4.32456e-08 0
1.06323 -4.91084e-08 0
1.06323 -5.51096e-08 0
1.06323 -6.12459e-08 0
1.06323 -6.7511e-08 0
1.06323 -7.38966e-08 0
1.06323 -8.03953e-08 0
1.06323 -8.70007e-08 0
1.06323 -9.37096e-08 0
1.06323 -1.00518e-07 0
1.06323 -1.07416e-07 0
1.06323 -1.14397e-07 0
1.06323 -1.21452e-07 0
1.06323 -1.28576e-07 0
1.06323 -1.35765e-07 0
1.06323 -1.43006e-07 0
1.06323 -1.50297e-07 0
1.06323 -1.57638e-07 0
1.06323 -1.65027e-07 0
1.06323 -1.72459e-07 0
1.06323 -1.79919e-07 0
1.06323 -1.87386e-07 0
1.06323 -1.94852e-07 0
1.06323 -2.02316e-07 0
1.06323 -2.09772e-07 0
1.06323 -2.17217e-07 0
1.06323 -2.24646e-07 0
1.06323 -2.32051e-07 0
1.06323 -2.39424e-07 0
1.06323 -2.46757e-07 0
1.06323 -2.54045e-07 0
1.06323 -2.61279e-07 0
1.06323 -2.68454e-07 0
1.06323 -2.75564e-07 0
1.06323 -2.826e-07 0
1.06323 -2.89557e-07 0
1.06323 -2.96428e-07 0
1.06323 -3.03206e-07 0
1.06323 -3.09883e-07 0
1.06322 -3.16454e-07 0
1.06322 -3.22912e-07 0
1.06322 -3.2925e-07 0
1.06322 -3.35461e-07 0
1.06322 -3.4154e-07 0
1.06322 -3.47479e-07 0
1.06322 -3.53272e-07 0
1.06322 -3.58914e-07 0
1.06322 -3.64397e-07 0
1.06322 -3.69717e-07 0
1.06322 -3.74866e-07 0
1.06322 -3.79841e-07 0
1.06322 -3.84634e-07 0
1.06322 -3.89242e-07 0
1.06322 -3.93658e-07 0
1.06322 -3.97877e-07 0
1.06322 -4.01892e-07 0
1.06322 -4.05678e-07 0
1.06322 -4.09126e-07 0
1.06322 -4.11692e-07 0
1.06322 -4.10649e-07 0
1.06322 -3.92483e-07 0