# vtk DataFile Version 2.0
FlowField
ASCII
DATASET STRUCTURED_GRID
DIMENSIONS 102 1 12 
POINTS 1224 double
0 0 0
0.4 0 0
0.8 0 0
1.2 0 0
1.6 0 0
2 0 0
2.4 0 0
2.8 0 0
3.2 0 0
3.6 0 0
4 0 0
4.4 0 0
4.8 0 0
5.2 0 0
5.6 0 0
6 0 0
6.4 0 0
6.8 0 0
7.2 0 0
7.6 0 0
8 0 0
8.4 0 0
8.8 0 0
9.2 0 0
9.6 0 0
10 0 0
10.4 0 0
10.8 0 0
11.2 0 0
11.6 0 0
12 0 0
12.4 0 0
12.8 0 0
13.2 0 0
13.6 0 0
14 0 0
14.4 0 0
14.8 0 0
15.2 0 0
15.6 0 0
16 0 0
16.4 0 0
16.8 0 0
17.2 0 0
17.6 0 0
18 0 0
18.4 0 0
18.8 0 0
19.2 0 0
19.6 0 0
20 0 0
20.4 0 0
20.8 0 0
21.2 0 0
21.6 0 0
22 0 0
22.4 0 0
22.8 0 0
23.2 0 0
23.6 0 0
24 0 0
24.4 0 0
24.8 0 0
25.2 0 0
25.6 0 0
26 0 0
26.4 0 0
26.8 0 0
27.2 0 0
27.6 0 0
28 0 0
28.4 0 0
28.8 0 0
29.2 0 0
29.6 0 0
30 0 0
30.4 0 0
30.8 0 0
31.2 0 0
31.6 0 0
32 0 0
32.4 0 0
32.8 0 0
33.2 0 0
33.6 0 0
34 0 0
34.4 0 0
34.8 0 0
35.2 0 0
35.6 0 0
36 0 0
36.4 0 0
36.8 0 0
37.2 0 0
37.6 0 0
38 0 0
38.4 0 0
38.8 0 0
39.2 0 0
39.6 0 0
40 0 0
40.4 0 0
0 0.1 0
0.4 0.1 0
0.8 0.1 0
1.2 0.1 0
1.6 0.1 0
2 0.1 0
2.4 0.1 0
2.8 0.1 0
3.2 0.1 0
3.6 0.1 0
4 0.1 0
4.4 0.1 0
4.8 0.1 0
5.2 0.1 0
5.6 0.1 0
6 0.1 0
6.4 0.1 0
6.8 0.1 0
7.2 0.1 0
7.6 0.1 0
8 0.1 0
8.4 0.1 0
8.8 0.1 0
9.2 0.1 0
9.6 0.1 0
10 0.1 0
10.4 0.1 0
10.8 0.1 0
11.2 0.1 0
11.6 0.1 0
12 0.1 0
12.4 0.1 0
12.8 0.1 0
13.2 0.1 0
13.6 0.1 0
14 0.1 0
14.4 0.1 0
14.8 0.1 0
15.2 0.1 0
15.6 0.1 0
16 0.1 0
16.4 0.1 0
16.8 0.1 0
17.2 0.1 0
17.6 0.1 0
18 0.1 0
18.4 0.1 0
18.8 0.1 0
19.2 0.1 0
19.6 0.1 0
20 0.1 0
20.4 0.1 0
20.8 0.1 0
21.2 0.1 0
21.6 0.1 0
22 0.1 0
22.4 0.1 0
22.8 0.1 0
23.2 0.1 0
23.6 0.1 0
24 0.1 0
24.4 0.1 0
24.8 0.1 0
25.2 0.1 0
25.6 0.1 0
26 0.1 0
26.4 0.1 0
26.8 0.1 0
27.2 0.1 0
27.6 0.1 0
28 0.1 0
28.4 0.1 0
28.8 0.1 0
29.2 0.1 0
29.6 0.1 0
30 0.1 0
30.4 0.1 0
30.8 0.1 0
31.2 0.1 0
31.6 0.1 0
32 0.1 0
32.4 0.1 0
32.8 0.1 0
33.2 0.1 0
33.6 0.1 0
34 0.1 0
34.4 0.1 0
34.8 0.1 0
35.2 0.1 0
35.6 0.1 0
36 0.1 0
36.4 0.1 0
36.8 0.1 0
37.2 0.1 0
37.6 0.1 0
38 0.1 0
38.4 0.1 0
38.8 0.1 0
39.2 0.1 0
39.6 0.1 0
40 0.1 0
40.4 0.1 0
0 0.2 0
0.4 0.2 0
0.8 0.2 0
1.2 0.2 0
1.6 0.2 0
2 0.2 0
2.4 0.2 0
2.8 0.2 0
3.2 0.2 0
3.6 0.2 0
4 0.2 0
4.4 0.2 0
4.8 0.2 0
5.2 0.2 0
5.6 0.2 0
6 0.2 0
6.4 0.2 0
6.8 0.2 0
7.2 0.2 0
7.6 0.2 0
8 0.2 0
8.4 0.2 0
8.8 0.2 0
9.2 0.2 0
9.6 0.2 0
10 0.2 0
10.4 0.2 0
10.8 0.2 0
11.2 0.2 0
11.6 0.2 0
12 0.2 0
12.4 0.2 0
12.8 0.2 0
13.2 0.2 0
13.6 0.2 0
14 0.2 0
14.4 0.2 0
14.8 0.2 0
15.2 0.2 0
15.6 0.2 0
16 0.2 0
16.4 0.2 0
16.8 0.2 0
17.2 0.2 0
17.6 0.2 0
18 0.2 0
18.4 0.2 0
18.8 0.2 0
19.2 0.2 0
19.6 0.2 0
20 0.2 0
20.4 0.2 0
20.8 0.2 0
21.2 0.2 0
21.6 0.2 0
22 0.2 0
22.4 0.2 0
22.8 0.2 0
23.2 0.2 0
23.6 0.2 0
24 0.2 0
24.4 0.2 0
24.8 0.2 0
25.2 0.2 0
25.6 0.2 0
26 0.2 0
26.4 0.2 0
26.8 0.2 0
27.2 0.2 0
27.6 0.2 0
28 0.2 0
28.4 0.2 0
28.8 0.2 0
29.2 0.2 0
29.6 0.2 0
30 0.2 0
30.4 0.2 0
30.8 0.2 0
31.2 0.2 0
31.6 0.2 0
32 0.2 0
32.4 0.2 0
32.8 0.2 0
33.2 0.2 0
33.6 0.2 0
34 0.2 0
34.4 0.2 0
34.8 0.2 0
35.2 0.2 0
35.6 0.2 0
36 0.2 0
36.4 0.2 0
36.8 0.2 0
37.2 0.2 0
37.6 0.2 0
38 0.2 0
38.4 0.2 0
38.8 0.2 0
39.2 0.2 0
39.6 0.2 0
40 0.2 0
40.4 0.2 0
0 0.3 0
0.4 0.3 0
0.8 0.3 0
1.2 0.3 0
1.6 0.3 0
2 0.3 0
2.4 0.3 0
2.8 0.3 0
3.2 0.3 0
3.6 0.3 0
4 0.3 0
4.4 0.3 0
4.8 0.3 0
5.2 0.3 0
5.6 0.3 0
6 0.3 0
6.4 0.3 0
6.8 0.3 0
7.2 0.3 0
7.6 0.3 0
8 0.3 0
8.4 0.3 0
8.8 0.3 0
9.2 0.3 0
9.6 0.3 0
10 0.3 0
10.4 0.3 0
10.8 0.3 0
11.2 0.3 0
11.6 0.3 0
12 0.3 0
12.4 0.3 0
12.8 0.3 0
13.2 0.3 0
13.6 0.3 0
14 0.3 0
14.4 0.3 0
14.8 0.3 0
15.2 0.3 0
15.6 0.3 0
16 0.3 0
16.4 0.3 0
16.8 0.3 0
17.2 0.3 0
17.6 0.3 0
18 0.3 0
18.4 0.3 0
18.8 0.3 0
19.2 0.3 0
19.6 0.3 0
20 0.3 0
20.4 0.3 0
20.8 0.3 0
21.2 0.3 0
21.6 0.3 0
22 0.3 0
22.4 0.3 0
22.8 0.3 0
23.2 0.3 0
23.6 0.3 0
24 0.3 0
24.4 0.3 0
24.8 0.3 0
25.2 0.3 0
25.6 0.3 0
26 0.3 0
26.4 0.3 0
26.8 0.3 0
27.2 0.3 0
27.6 0.3 0
28 0.3 0
28.4 0.3 0
28.8 0.3 0
29.2 0.3 0
29.6 0.3 0
30 0.3 0
30.4 0.3 0
30.8 0.3 0
31.2 0.3 0
31.6 0.3 0
32 0.3 0
32.4 0.3 0
32.8 0.3 0
33.2 0.3 0
33.6 0.3 0
34 0.3 0
34.4 0.3 0
34.8 0.3 0
35.2 0.3 0
35.6 0.3 0
36 0.3 0
36.4 0.3 0
36.8 0.3 0
37.2 0.3 0
37.6 0.3 0
38 0.3 0
38.4 0.3 0
38.8 0.3 0
39.2 0.3 0
39.6 0.3 0
40 0.3 0
40.4 0.3 0
0 0.4 0
0.4 0.4 0
0.8 0.4 0
1.2 0.4 0
1.6 0.4 0
2 0.4 0
2.4 0.4 0
2.8 0.4 0
3.2 0.4 0
3.6 0.4 0
4 0.4 0
4.4 0.4 0
4.8 0.4 0
5.2 0.4 0
5.6 0.4 0
6 0.4 0
6.4 0.4 0
6.8 0.4 0
7.2 0.4 0
7.6 0.4 0
8 0.4 0
8.4 0.4 0
8.8 0.4 0
9.2 0.4 0
9.6 0.4 0
10 0.4 0
10.4 0.4 0
10.8 0.4 0
11.2 0.4 0
11.6 0.4 0
12 0.4 0
12.4 0.4 0
12.8 0.4 0
13.2 0.4 0
13.6 0.4 0
14 0.4 0
14.4 0.4 0
14.8 0.4 0
15.2 0.4 0
15.6 0.4 0
16 0.4 0
16.4 0.4 0
16.8 0.4 0
17.2 0.4 0
17.6 0.4 0
18 0.4 0
18.4 0.4 0
18.8 0.4 0
19.2 0.4 0
19.6 0.4 0
20 0.4 0
20.4 0.4 0
20.8 0.4 0
21.2 0.4 0
21.6 0.4 0
22 0.4 0
22.4 0.4 0
22.8 0.4 0
23.2 0.4 0
23.6 0.4 0
24 0.4 0
24.4 0.4 0
24.8 0.4 0
25.2 0.4 0
25.6 0.4 0
26 0.4 0
26.4 0.4 0
26.8 0.4 0
27.2 0.4 0
27.6 0.4 0
28 0.4 0
28.4 0.4 0
28.8 0.4 0
29.2 0.4 0
29.6 0.4 0
30 0.4 0
30.4 0.4 0
30.8 0.4 0
31.2 0.4 0
31.6 0.4 0
32 0.4 0
32.4 0.4 0
32.8 0.4 0
33.2 0.4 0
33.6 0.4 0
34 0.4 0
34.4 0.4 0
34.8 0.4 0
35.2 0.4 0
35.6 0.4 0
36 0.4 0
36.4 0.4 0
36.8 0.4 0
37.2 0.4 0
37.6 0.4 0
38 0.4 0
38.4 0.4 0
38.8 0.4 0
39.2 0.4 0
39.6 0.4 0
40 0.4 0
40.4 0.4 0
0 0.5 0
0.4 0.5 0
0.8 0.5 0
1.2 0.5 0
1.6 0.5 0
2 0.5 0
2.4 0.5 0
2.8 0.5 0
3.2 0.5 0
3.6 0.5 0
4 0.5 0
4.4 0.5 0
4.8 0.5 0
5.2 0.5 0
5.6 0.5 0
6 0.5 0
6.4 0.5 0
6.8 0.5 0
7.2 0.5 0
7.6 0.5 0
8 0.5 0
8.4 0.5 0
8.8 0.5 0
9.2 0.5 0
9.6 0.5 0
10 0.5 0
10.4 0.5 0
10.8 0.5 0
11.2 0.5 0
11.6 0.5 0
12 0.5 0
12.4 0.5 0
12.8 0.5 0
13.2 0.5 0
13.6 0.5 0
14 0.5 0
14.4 0.5 0
14.8 0.5 0
15.2 0.5 0
15.6 0.5 0
16 0.5 0
16.4 0.5 0
16.8 0.5 0
17.2 0.5 0
17.6 0.5 0
18 0.5 0
18.4 0.5 0
18.8 0.5 0
19.2 0.5 0
19.6 0.5 0
20 0.5 0
20.4 0.5 0
20.8 0.5 0
21.2 0.5 0
21.6 0.5 0
22 0.5 0
22.4 0.5 0
22.8 0.5 0
23.2 0.5 0
23.6 0.5 0
24 0.5 0
24.4 0.5 0
24.8 0.5 0
25.2 0.5 0
25.6 0.5 0
26 0.5 0
26.4 0.5 0
26.8 0.5 0
27.2 0.5 0
27.6 0.5 0
28 0.5 0
28.4 0.5 0
28.8 0.5 0
29.2 0.5 0
29.6 0.5 0
30 0.5 0
30.4 0.5 0
30.8 0.5 0
31.2 0.5 0
31.6 0.5 0
32 0.5 0
32.4 0.5 0
32.8 0.5 0
33.2 0.5 0
33.6 0.5 0
34 0.5 0
34.4 0.5 0
34.8 0.5 0
35.2 0.5 0
35.6 0.5 0
36 0.5 0
36.4 0.5 0
36.8 0.5 0
37.2 0.5 0
37.6 0.5 0
38 0.5 0
38.4 0.5 0
38.8 0.5 0
39.2 0.5 0
39.6 0.5 0
40 0.5 0
40.4 0.5 0
0 0.6 0
0.4 0.6 0
0.8 0.6 0
1.2 0.6 0
1.6 0.6 0
2 0.6 0
2.4 0.6 0
2.8 0.6 0
3.2 0.6 0
3.6 0.6 0
4 0.6 0
4.4 0.6 0
4.8 0.6 0
5.2 0.6 0
5.6 0.6 0
6 0.6 0
6.4 0.6 0
6.8 0.6 0
7.2 0.6 0
7.6 0.6 0
8 0.6 0
8.4 0.6 0
8.8 0.6 0
9.2 0.6 0
9.6 0.6 0
10 0.6 0
10.4 0.6 0
10.8 0.6 0
11.2 0.6 0
11.6 0.6 0
12 0.6 0
12.4 0.6 0
12.8 0.6 0
13.2 0.6 0
13.6 0.6 0
14 0.6 0
14.4 0.6 0
14.8 0.6 0
15.2 0.6 0
15.6 0.6 0
16 0.6 0
16.4 0.6 0
16.8 0.6 0
17.2 0.6 0
17.6 0.6 0
18 0.6 0
18.4 0.6 0
18.8 0.6 0
19.2 0.6 0
19.6 0.6 0
20 0.6 0
20.4 0.6 0
20.8 0.6 0
21.2 0.6 0
21.6 0.6 0
22 0.6 0
22.4 0.6 0
22.8 0.6 0
23.2 0.6 0
23.6 0.6 0
24 0.6 0
24.4 0.6 0
24.8 0.6 0
25.2 0.6 0
25.6 0.6 0
26 0.6 0
26.4 0.6 0
26.8 0.6 0
27.2 0.6 0
27.6 0.6 0
28 0.6 0
28.4 0.6 0
28.8 0.6 0
29.2 0.6 0
29.6 0.6 0
30 0.6 0
30.4 0.6 0
30.8 0.6 0
31.2 0.6 0
31.6 0.6 0
32 0.6 0
32.4 0.6 0
32.8 0.6 0
33.2 0.6 0
33.6 0.6 0
34 0.6 0
34.4 0.6 0
34.8 0.6 0
35.2 0.6 0
35.6 0.6 0
36 0.6 0
36.4 0.6 0
36.8 0.6 0
37.2 0.6 0
37.6 0.6 0
38 0.6 0
38.4 0.6 0
38.8 0.6 0
39.2 0.6 0
39.6 0.6 0
40 0.6 0
40.4 0.6 0
0 0.7 0
0.4 0.7 0
0.8 0.7 0
1.2 0.7 0
1.6 0.7 0
2 0.7 0
2.4 0.7 0
2.8 0.7 0
3.2 0.7 0
3.6 0.7 0
4 0.7 0
4.4 0.7 0
4.8 0.7 0
5.2 0.7 0
5.6 0.7 0
6 0.7 0
6.4 0.7 0
6.8 0.7 0
7.2 0.7 0
7.6 0.7 0
8 0.7 0
8.4 0.7 0
8.8 0.7 0
9.2 0.7 0
9.6 0.7 0
10 0.7 0
10.4 0.7 0
10.8 0.7 0
11.2 0.7 0
11.6 0.7 0
12 0.7 0
12.4 0.7 0
12.8 0.7 0
13.2 0.7 0
13.6 0.7 0
14 0.7 0
14.4 0.7 0
14.8 0.7 0
15.2 0.7 0
15.6 0.7 0
16 0.7 0
16.4 0.7 0
16.8 0.7 0
17.2 0.7 0
17.6 0.7 0
18 0.7 0
18.4 0.7 0
18.8 0.7 0
19.2 0.7 0
19.6 0.7 0
20 0.7 0
20.4 0.7 0
20.8 0.7 0
21.2 0.7 0
21.6 0.7 0
22 0.7 0
22.4 0.7 0
22.8 0.7 0
23.2 0.7 0
23.6 0.7 0
24 0.7 0
24.4 0.7 0
24.8 0.7 0
25.2 0.7 0
25.6 0.7 0
26 0.7 0
26.4 0.7 0
26.8 0.7 0
27.2 0.7 0
27.6 0.7 0
28 0.7 0
28.4 0.7 0
28.8 0.7 0
29.2 0.7 0
29.6 0.7 0
30 0.7 0
30.4 0.7 0
30.8 0.7 0
31.2 0.7 0
31.6 0.7 0
32 0.7 0
32.4 0.7 0
32.8 0.7 0
33.2 0.7 0
33.6 0.7 0
34 0.7 0
34.4 0.7 0
34.8 0.7 0
35.2 0.7 0
35.6 0.7 0
36 0.7 0
36.4 0.7 0
36.8 0.7 0
37.2 0.7 0
37.6 0.7 0
38 0.7 0
38.4 0.7 0
38.8 0.7 0
39.2 0.7 0
39.6 0.7 0
40 0.7 0
40.4 0.7 0
0 0.8 0
0.4 0.8 0
0.8 0.8 0
1.2 0.8 0
1.6 0.8 0
2 0.8 0
2.4 0.8 0
2.8 0.8 0
3.2 0.8 0
3.6 0.8 0
4 0.8 0
4.4 0.8 0
4.8 0.8 0
5.2 0.8 0
5.6 0.8 0
6 0.8 0
6.4 0.8 0
6.8 0.8 0
7.2 0.8 0
7.6 0.8 0
8 0.8 0
8.4 0.8 0
8.8 0.8 0
9.2 0.8 0
9.6 0.8 0
10 0.8 0
10.4 0.8 0
10.8 0.8 0
11.2 0.8 0
11.6 0.8 0
12 0.8 0
12.4 0.8 0
12.8 0.8 0
13.2 0.8 0
13.6 0.8 0
14 0.8 0
14.4 0.8 0
14.8 0.8 0
15.2 0.8 0
15.6 0.8 0
16 0.8 0
16.4 0.8 0
16.8 0.8 0
17.2 0.8 0
17.6 0.8 0
18 0.8 0
18.4 0.8 0
18.8 0.8 0
19.2 0.8 0
19.6 0.8 0
20 0.8 0
20.4 0.8 0
20.8 0.8 0
21.2 0.8 0
21.6 0.8 0
22 0.8 0
22.4 0.8 0
22.8 0.8 0
23.2 0.8 0
23.6 0.8 0
24 0.8 0
24.4 0.8 0
24.8 0.8 0
25.2 0.8 0
25.6 0.8 0
26 0.8 0
26.4 0.8 0
26.8 0.8 0
27.2 0.8 0
27.6 0.8 0
28 0.8 0
28.4 0.8 0
28.8 0.8 0
29.2 0.8 0
29.6 0.8 0
30 0.8 0
30.4 0.8 0
30.8 0.8 0
31.2 0.8 0
31.6 0.8 0
32 0.8 0
32.4 0.8 0
32.8 0.8 0
33.2 0.8 0
33.6 0.8 0
34 0.8 0
34.4 0.8 0
34.8 0.8 0
35.2 0.8 0
35.6 0.8 0
36 0.8 0
36.4 0.8 0
36.8 0.8 0
37.2 0.8 0
37.6 0.8 0
38 0.8 0
38.4 0.8 0
38.8 0.8 0
39.2 0.8 0
39.6 0.8 0
40 0.8 0
40.4 0.8 0
0 0.9 0
0.4 0.9 0
0.8 0.9 0
1.2 0.9 0
1.6 0.9 0
2 0.9 0
2.4 0.9 0
2.8 0.9 0
3.2 0.9 0
3.6 0.9 0
4 0.9 0
4.4 0.9 0
4.8 0.9 0
5.2 0.9 0
5.6 0.9 0
6 0.9 0
6.4 0.9 0
6.8 0.9 0
7.2 0.9 0
7.6 0.9 0
8 0.9 0
8.4 0.9 0
8.8 0.9 0
9.2 0.9 0
9.6 0.9 0
10 0.9 0
10.4 0.9 0
10.8 0.9 0
11.2 0.9 0
11.6 0.9 0
12 0.9 0
12.4 0.9 0
12.8 0.9 0
13.2 0.9 0
13.6 0.9 0
14 0.9 0
14.4 0.9 0
14.8 0.9 0
15.2 0.9 0
15.6 0.9 0
16 0.9 0
16.4 0.9 0
16.8 0.9 0
17.2 0.9 0
17.6 0.9 0
18 0.9 0
18.4 0.9 0
18.8 0.9 0
19.2 0.9 0
19.6 0.9 0
20 0.9 0
20.4 0.9 0
20.8 0.9 0
21.2 0.9 0
21.6 0.9 0
22 0.9 0
22.4 0.9 0
22.8 0.9 0
23.2 0.9 0
23.6 0.9 0
24 0.9 0
24.4 0.9 0
24.8 0.9 0
25.2 0.9 0
25.6 0.9 0
26 0.9 0
26.4 0.9 0
26.8 0.9 0
27.2 0.9 0
27.6 0.9 0
28 0.9 0
28.4 0.9 0
28.8 0.9 0
29.2 0.9 0
29.6 0.9 0
30 0.9 0
30.4 0.9 0
30.8 0.9 0
31.2 0.9 0
31.6 0.9 0
32 0.9 0
32.4 0.9 0
32.8 0.9 0
33.2 0.9 0
33.6 0.9 0
34 0.9 0
34.4 0.9 0
34.8 0.9 0
35.2 0.9 0
35.6 0.9 0
36 0.9 0
36.4 0.9 0
36.8 0.9 0
37.2 0.9 0
37.6 0.9 0
38 0.9 0
38.4 0.9 0
38.8 0.9 0
39.2 0.9 0
39.6 0.9 0
40 0.9 0
40.4 0.9 0
0 1 0
0.4 1 0
0.8 1 0
1.2 1 0
1.6 1 0
2 1 0
2.4 1 0
2.8 1 0
3.2 1 0
3.6 1 0
4 1 0
4.4 1 0
4.8 1 0
5.2 1 0
5.6 1 0
6 1 0
6.4 1 0
6.8 1 0
7.2 1 0
7.6 1 0
8 1 0
8.4 1 0
8.8 1 0
9.2 1 0
9.6 1 0
10 1 0
10.4 1 0
10.8 1 0
11.2 1 0
11.6 1 0
12 1 0
12.4 1 0
12.8 1 0
13.2 1 0
13.6 1 0
14 1 0
14.4 1 0
14.8 1 0
15.2 1 0
15.6 1 0
16 1 0
16.4 1 0
16.8 1 0
17.2 1 0
17.6 1 0
18 1 0
18.4 1 0
18.8 1 0
19.2 1 0
19.6 1 0
20 1 0
20.4 1 0
20.8 1 0
21.2 1 0
21.6 1 0
22 1 0
22.4 1 0
22.8 1 0
23.2 1 0
23.6 1 0
24 1 0
24.4 1 0
24.8 1 0
25.2 1 0
25.6 1 0
26 1 0
26.4 1 0
26.8 1 0
27.2 1 0
27.6 1 0
28 1 0
28.4 1 0
28.8 1 0
29.2 1 0
29.6 1 0
30 1 0
30.4 1 0
30.8 1 0
31.2 1 0
31.6 1 0
32 1 0
32.4 1 0
32.8 1 0
33.2 1 0
33.6 1 0
34 1 0
34.4 1 0
34.8 1 0
35.2 1 0
35.6 1 0
36 1 0
36.4 1 0
36.8 1 0
37.2 1 0
37.6 1 0
38 1 0
38.4 1 0
38.8 1 0
39.2 1 0
39.6 1 0
40 1 0
40.4 1 0
0 1.1 0
0.4 1.1 0
0.8 1.1 0
1.2 1.1 0
1.6 1.1 0
2 1.1 0
2.4 1.1 0
2.8 1.1 0
3.2 1.1 0
3.6 1.1 0
4 1.1 0
4.4 1.1 0
4.8 1.1 0
5.2 1.1 0
5.6 1.1 0
6 1.1 0
6.4 1.1 0
6.8 1.1 0
7.2 1.1 0
7.6 1.1 0
8 1.1 0
8.4 1.1 0
8.8 1.1 0
9.2 1.1 0
9.6 1.1 0
10 1.1 0
10.4 1.1 0
10.8 1.1 0
11.2 1.1 0
11.6 1.1 0
12 1.1 0
12.4 1.1 0
12.8 1.1 0
13.2 1.1 0
13.6 1.1 0
14 1.1 0
14.4 1.1 0
14.8 1.1 0
15.2 1.1 0
15.6 1.1 0
16 1.1 0
16.4 1.1 0
16.8 1.1 0
17.2 1.1 0
17.6 1.1 0
18 1.1 0
18.4 1.1 0
18.8 1.1 0
19.2 1.1 0
19.6 1.1 0
20 1.1 0
20.4 1.1 0
20.8 1.1 0
21.2 1.1 0
21.6 1.1 0
22 1.1 0
22.4 1.1 0
22.8 1.1 0
23.2 1.1 0
23.6 1.1 0
24 1.1 0
24.4 1.1 0
24.8 1.1 0
25.2 1.1 0
25.6 1.1 0
26 1.1 0
26.4 1.1 0
26.8 1.1 0
27.2 1.1 0
27.6 1.1 0
28 1.1 0
28.4 1.1 0
28.8 1.1 0
29.2 1.1 0
29.6 1.1 0
30 1.1 0
30.4 1.1 0
30.8 1.1 0
31.2 1.1 0
31.6 1.1 0
32 1.1 0
32.4 1.1 0
32.8 1.1 0
33.2 1.1 0
33.6 1.1 0
34 1.1 0
34.4 1.1 0
34.8 1.1 0
35.2 1.1 0
35.6 1.1 0
36 1.1 0
36.4 1.1 0
36.8 1.1 0
37.2 1.1 0
37.6 1.1 0
38 1.1 0
38.4 1.1 0
38.8 1.1 0
39.2 1.1 0
39.6 1.1 0
40 1.1 0
40.4 1.1 0

POINT_DATA 1224

SCALARS p double
LOOKUP_TABLE default
13.3045
13.3045
12.5873
11.8606
11.2272
10.6965
10.2526
9.87417
9.54357
9.2478
8.97756
8.72583
8.48701
8.25668
8.03153
7.80921
7.58825
7.36778
7.14738
6.92685
6.70616
6.48533
6.26438
6.04336
5.82229
5.6012
5.3801
5.159
4.93791
4.71681
4.49572
4.27464
4.05355
3.83247
3.61139
3.39031
3.16923
2.94816
2.72708
2.506
2.28492
2.06385
1.84277
1.62169
1.40062
1.17954
0.958469
0.737394
0.516319
0.295245
0.0741704
-0.146904
-0.367978
-0.589051
-0.810125
-1.0312
-1.25227
-1.47334
-1.69442
-1.91549
-2.13656
-2.35764
-2.57871
-2.79978
-3.02086
-3.24193
-3.463
-3.68408
-3.90515
-4.12622
-4.3473
-4.56837
-4.78944
-5.01052
-5.23159
-5.45266
-5.67374
-5.89481
-6.11589
-6.33696
-6.55804
-6.77911
-7.00019
-7.22127
-7.44234
-7.66342
-7.8845
-8.10557
-8.32665
-8.54773
-8.76881
-8.98989
-9.21099
-9.43214
-9.65345
-9.87563
-10.0999
-10.3377
-10.6063
-11.0585
-12.5774
12.5774
13.3045
13.3045
12.5873
11.8606
11.2272
10.6965
10.2526
9.87417
9.54357
9.2478
8.97756
8.72583
8.48701
8.25668
8.03153
7.80921
7.58825
7.36778
7.14738
6.92685
6.70616
6.48533
6.26438
6.04336
5.82229
5.6012
5.3801
5.159
4.93791
4.71681
4.49572
4.27464
4.05355
3.83247
3.61139
3.39031
3.16923
2.94816
2.72708
2.506
2.28492
2.06385
1.84277
1.62169
1.40062
1.17954
0.958469
0.737394
0.516319
0.295245
0.0741704
-0.146904
-0.367978
-0.589051
-0.810125
-1.0312
-1.25227
-1.47334
-1.69442
-1.91549
-2.13656
-2.35764
-2.57871
-2.79978
-3.02086
-3.24193
-3.463
-3.68408
-3.90515
-4.12622
-4.3473
-4.56837
-4.78944
-5.01052
-5.23159
-5.45266
-5.67374
-5.89481
-6.11589
-6.33696
-6.55804
-6.77911
-7.00019
-7.22127
-7.44234
-7.66342
-7.8845
-8.10557
-8.32665
-8.54773
-8.76881
-8.98989
-9.21099
-9.43214
-9.65345
-9.87563
-10.0999
-10.3377
-10.6063
-11.0585
-12.5774
12.5774
12.9315
12.9315
12.3617
11.745
11.1817
10.6898
10.2633
9.89008
9.55847
9.25943
8.98574
8.73122
8.49045
8.25888
8.03295
7.81016
7.5889
7.36823
7.14768
6.92705
6.70629
6.4854
6.26442
6.04338
5.8223
5.60121
5.3801
5.159
4.93791
4.71681
4.49572
4.27464
4.05355
3.83247
3.61139
3.39031
3.16923
2.94816
2.72708
2.506
2.28492
2.06385
1.84277
1.62169
1.40062
1.17954
0.958469
0.737394
0.516319
0.295245
0.0741706
-0.146903
-0.367977
-0.589051
-0.810125
-1.0312
-1.25227
-1.47334
-1.69442
-1.91549
-2.13656
-2.35764
-2.57871
-2.79978
-3.02086
-3.24193
-3.463
-3.68408
-3.90515
-4.12622
-4.34729
-4.56837
-4.78944
-5.01052
-5.23159
-5.45266
-5.67374
-5.89481
-6.11589
-6.33696
-6.55804
-6.77911
-7.00019
-7.22127
-7.44234
-7.66342
-7.8845
-8.10557
-8.32665
-8.54773
-8.76881
-8.98989
-9.21098
-9.43209
-9.65326
-9.87493
-10.0971
-10.3271
-10.5649
-10.9271
-11.5603
11.5603
12.6355
12.6355
12.146
11.6076
11.106
10.6566
10.2561
9.89672
9.57091
9.27294
8.99792
8.74117
8.49811
8.26455
8.03704
7.81306
7.59091
7.3696
7.14859
6.92764
6.70666
6.48562
6.26454
6.04344
5.82233
5.60122
5.38011
5.159
4.9379
4.71681
4.49572
4.27464
4.05355
3.83247
3.61139
3.39031
3.16923
2.94816
2.72708
2.506
2.28492
2.06385
1.84277
1.6217
1.40062
1.17954
0.958469
0.737394
0.51632
0.295245
0.0741708
-0.146903
-0.367977
-0.589051
-0.810124
-1.0312
-1.25227
-1.47334
-1.69442
-1.91549
-2.13656
-2.35764
-2.57871
-2.79978
-3.02086
-3.24193
-3.463
-3.68407
-3.90515
-4.12622
-4.34729
-4.56837
-4.78944
-5.01052
-5.23159
-5.45266
-5.67374
-5.89481
-6.11589
-6.33696
-6.55804
-6.77911
-7.00019
-7.22127
-7.44234
-7.66342
-7.8845
-8.10557
-8.32665
-8.54773
-8.76881
-8.98989
-9.21096
-9.43203
-9.65298
-9.87387
-10.093
-10.3116
-10.5015
-10.7153
-10.3188
10.3188
12.4448
12.4448
12.0007
11.5084
11.0452
10.6247
10.2443
9.8977
9.57924
9.28466
9.01037
8.75274
8.50799
8.2725
8.04315
7.81757
7.59413
7.37182
7.15008
6.92861
6.70726
6.48598
6.26475
6.04355
5.82238
5.60124
5.38011
5.159
4.9379
4.71681
4.49572
4.27463
4.05355
3.83247
3.61139
3.39031
3.16923
2.94816
2.72708
2.506
2.28492
2.06385
1.84277
1.6217
1.40062
1.17954
0.95847
0.737395
0.51632
0.295245
0.0741712
-0.146903
-0.367977
-0.589051
-0.810124
-1.0312
-1.25227
-1.47334
-1.69442
-1.91549
-2.13656
-2.35764
-2.57871
-2.79978
-3.02086
-3.24193
-3.463
-3.68408
-3.90515
-4.12622
-4.3473
-4.56837
-4.78944
-5.01052
-5.23159
-5.45266
-5.67374
-5.89481
-6.11589
-6.33696
-6.55804
-6.77911
-7.00019
-7.22127
-7.44234
-7.66342
-7.8845
-8.10557
-8.32665
-8.54773
-8.76881
-8.98988
-9.21094
-9.43195
-9.65275
-9.87281
-10.0895
-10.2965
-10.4462
-10.5056
-9.32128
9.32128
12.3518
12.3518
11.9293
11.4588
11.014
10.6076
10.2374
9.89783
9.58382
9.29167
9.01827
8.76047
8.51489
8.27826
8.0477
7.82101
7.59663
7.37358
7.15127
6.92939
6.70775
6.48628
6.26492
6.04365
5.82243
5.60126
5.38012
5.159
4.9379
4.71681
4.49572
4.27463
4.05355
3.83247
3.61139
3.39031
3.16923
2.94816
2.72708
2.506
2.28493
2.06385
1.84277
1.6217
1.40062
1.17955
0.95847
0.737395
0.51632
0.295246
0.0741716
-0.146902
-0.367976
-0.58905
-0.810124
-1.0312
-1.25227
-1.47334
-1.69442
-1.91549
-2.13656
-2.35764
-2.57871
-2.79978
-3.02086
-3.24193
-3.463
-3.68408
-3.90515
-4.12622
-4.3473
-4.56837
-4.78944
-5.01052
-5.23159
-5.45266
-5.67374
-5.89481
-6.11589
-6.33696
-6.55804
-6.77911
-7.00019
-7.22127
-7.44234
-7.66342
-7.8845
-8.10558
-8.32665
-8.54773
-8.76881
-8.98988
-9.21094
-9.43191
-9.65263
-9.87213
-10.0877
-10.287
-10.4159
-10.3753
-8.79048
8.79048
12.3518
12.3518
11.9293
11.4588
11.014
10.6076
10.2374
9.89783
9.58382
9.29167
9.01828
8.76047
8.51489
8.27826
8.04771
7.82101
7.59663
7.37358
7.15127
6.92939
6.70775
6.48628
6.26493
6.04365
5.82243
5.60126
5.38012
5.159
4.9379
4.71681
4.49572
4.27463
4.05355
3.83247
3.61139
3.39031
3.16924
2.94816
2.72708
2.506
2.28493
2.06385
1.84277
1.6217
1.40062
1.17955
0.958471
0.737396
0.516321
0.295247
0.0741722
-0.146902
-0.367976
-0.58905
-0.810123
-1.0312
-1.25227
-1.47334
-1.69442
-1.91549
-2.13656
-2.35764
-2.57871
-2.79978
-3.02086
-3.24193
-3.463
-3.68408
-3.90515
-4.12622
-4.3473
-4.56837
-4.78944
-5.01052
-5.23159
-5.45267
-5.67374
-5.89481
-6.11589
-6.33696
-6.55804
-6.77912
-7.00019
-7.22127
-7.44234
-7.66342
-7.8845
-8.10558
-8.32665
-8.54773
-8.76881
-8.98988
-9.21094
-9.43191
-9.65264
-9.87213
-10.0877
-10.287
-10.4159
-10.3753
-8.79047
8.79047
12.4448
12.4448
12.0007
11.5084
11.0452
10.6247
10.2443
9.89771
9.57925
9.28467
9.01038
8.75274
8.508
8.27251
8.04316
7.81757
7.59413
7.37183
7.15008
6.92861
6.70726
6.48599
6.26475
6.04356
5.82239
5.60124
5.38012
5.159
4.9379
4.71681
4.49572
4.27464
4.05356
3.83247
3.6114
3.39032
3.16924
2.94816
2.72708
2.506
2.28493
2.06385
1.84277
1.6217
1.40062
1.17955
0.958472
0.737397
0.516322
0.295247
0.0741729
-0.146901
-0.367975
-0.589049
-0.810123
-1.0312
-1.25227
-1.47334
-1.69442
-1.91549
-2.13656
-2.35764
-2.57871
-2.79978
-3.02086
-3.24193
-3.463
-3.68408
-3.90515
-4.12622
-4.3473
-4.56837
-4.78944
-5.01052
-5.23159
-5.45267
-5.67374
-5.89481
-6.11589
-6.33697
-6.55804
-6.77912
-7.00019
-7.22127
-7.44235
-7.66342
-7.8845
-8.10558
-8.32666
-8.54773
-8.76881
-8.98989
-9.21095
-9.43196
-9.65275
-9.87282
-10.0895
-10.2965
-10.4462
-10.5056
-9.32127
9.32127
12.6355
12.6355
12.146
11.6076
11.106
10.6566
10.2561
9.89672
9.57092
9.27295
8.99793
8.74118
8.49812
8.26455
8.03705
7.81306
7.59091
7.3696
7.14859
6.92764
6.70666
6.48562
6.26455
6.04345
5.82234
5.60122
5.38011
5.15901
4.93791
4.71682
4.49573
4.27464
4.05356
3.83248
3.6114
3.39032
3.16924
2.94816
2.72708
2.50601
2.28493
2.06385
1.84278
1.6217
1.40062
1.17955
0.958473
0.737398
0.516323
0.295248
0.0741737
-0.146901
-0.367975
-0.589049
-0.810122
-1.0312
-1.25227
-1.47334
-1.69442
-1.91549
-2.13656
-2.35764
-2.57871
-2.79978
-3.02086
-3.24193
-3.463
-3.68408
-3.90515
-4.12622
-4.3473
-4.56837
-4.78944
-5.01052
-5.23159
-5.45267
-5.67374
-5.89482
-6.11589
-6.33697
-6.55804
-6.77912
-7.00019
-7.22127
-7.44235
-7.66342
-7.8845
-8.10558
-8.32666
-8.54773
-8.76881
-8.98989
-9.21096
-9.43203
-9.65298
-9.87388
-10.093
-10.3116
-10.5015
-10.7153
-10.3188
10.3188
12.9315
12.9315
12.3617
11.745
11.1817
10.6898
10.2633
9.89008
9.55848
9.25945
8.98575
8.73123
8.49046
8.25888
8.03296
7.81017
7.5889
7.36823
7.14768
6.92706
6.7063
6.48541
6.26443
6.04339
5.82231
5.60121
5.38011
5.15901
4.93791
4.71682
4.49573
4.27465
4.05356
3.83248
3.6114
3.39032
3.16924
2.94816
2.72708
2.50601
2.28493
2.06385
1.84278
1.6217
1.40062
1.17955
0.958474
0.737398
0.516324
0.295249
0.0741744
-0.1469
-0.367974
-0.589048
-0.810122
-1.0312
-1.25227
-1.47334
-1.69442
-1.91549
-2.13656
-2.35764
-2.57871
-2.79978
-3.02086
-3.24193
-3.463
-3.68408
-3.90515
-4.12622
-4.3473
-4.56837
-4.78944
-5.01052
-5.23159
-5.45267
-5.67374
-5.89482
-6.11589
-6.33697
-6.55804
-6.77912
-7.00019
-7.22127
-7.44235
-7.66342
-7.8845
-8.10558
-8.32666
-8.54774
-8.76882
-8.9899
-9.21098
-9.4321
-9.65326
-9.87493
-10.0971
-10.3271
-10.5649
-10.9271
-11.5603
11.5603
13.3045
13.3045
12.5873
11.8606
11.2272
10.6965
10.2526
9.87418
9.54358
9.24781
8.97758
8.72584
8.48702
8.25669
8.03153
7.80921
7.58825
7.36778
7.14738
6.92686
6.70617
6.48533
6.26438
6.04336
5.8223
5.60121
5.38011
5.15901
4.93792
4.71682
4.49573
4.27465
4.05356
3.83248
3.6114
3.39032
3.16924
2.94816
2.72708
2.50601
2.28493
2.06385
1.84278
1.6217
1.40062
1.17955
0.958474
0.737399
0.516324
0.295249
0.0741747
-0.1469
-0.367974
-0.589048
-0.810122
-1.0312
-1.25227
-1.47334
-1.69442
-1.91549
-2.13656
-2.35764
-2.57871
-2.79978
-3.02086
-3.24193
-3.463
-3.68408
-3.90515
-4.12622
-4.3473
-4.56837
-4.78944
-5.01052
-5.23159
-5.45267
-5.67374
-5.89482
-6.11589
-6.33697
-6.55804
-6.77912
-7.00019
-7.22127
-7.44235
-7.66342
-7.8845
-8.10558
-8.32666
-8.54774
-8.76882
-8.9899
-9.211
-9.43215
-9.65346
-9.87564
-10.1
-10.3377
-10.6063
-11.0585
-12.5774
12.5774
13.3045
13.3045
12.5873
11.8606
11.2272
10.6965
10.2526
9.87418
9.54358
9.24781
8.97758
8.72584
8.48702
8.25669
8.03153
7.80921
7.58825
7.36778
7.14738
6.92686
6.70617
6.48533
6.26438
6.04336
5.8223
5.60121
5.38011
5.15901
4.93792
4.71682
4.49573
4.27465
4.05356
3.83248
3.6114
3.39032
3.16924
2.94816
2.72708
2.50601
2.28493
2.06385
1.84278
1.6217
1.40062
1.17955
0.958474
0.737399
0.516324
0.295249
0.0741747
-0.1469
-0.367974
-0.589048
-0.810122
-1.0312
-1.25227
-1.47334
-1.69442
-1.91549
-2.13656
-2.35764
-2.57871
-2.79978
-3.02086
-3.24193
-3.463
-3.68408
-3.90515
-4.12622
-4.3473
-4.56837
-4.78944
-5.01052
-5.23159
-5.45267
-5.67374
-5.89482
-6.11589
-6.33697
-6.55804
-6.77912
-7.00019
-7.22127
-7.44235
-7.66342
-7.8845
-8.10558
-8.32666
-8.54774
-8.76882
-8.9899
-9.211
-9.43215
-9.65346
-9.87564
-10.1
-10.3377
-10.6063
-11.0585
-12.5774
12.5774
