# vtk DataFile Version 2.0
FlowField
ASCII
DATASET STRUCTURED_GRID
DIMENSIONS 102 1 12 
POINTS 1224 double
0 0 0
0.4 0 0
0.8 0 0
1.2 0 0
1.6 0 0
2 0 0
2.4 0 0
2.8 0 0
3.2 0 0
3.6 0 0
4 0 0
4.4 0 0
4.8 0 0
5.2 0 0
5.6 0 0
6 0 0
6.4 0 0
6.8 0 0
7.2 0 0
7.6 0 0
8 0 0
8.4 0 0
8.8 0 0
9.2 0 0
9.6 0 0
10 0 0
10.4 0 0
10.8 0 0
11.2 0 0
11.6 0 0
12 0 0
12.4 0 0
12.8 0 0
13.2 0 0
13.6 0 0
14 0 0
14.4 0 0
14.8 0 0
15.2 0 0
15.6 0 0
16 0 0
16.4 0 0
16.8 0 0
17.2 0 0
17.6 0 0
18 0 0
18.4 0 0
18.8 0 0
19.2 0 0
19.6 0 0
20 0 0
20.4 0 0
20.8 0 0
21.2 0 0
21.6 0 0
22 0 0
22.4 0 0
22.8 0 0
23.2 0 0
23.6 0 0
24 0 0
24.4 0 0
24.8 0 0
25.2 0 0
25.6 0 0
26 0 0
26.4 0 0
26.8 0 0
27.2 0 0
27.6 0 0
28 0 0
28.4 0 0
28.8 0 0
29.2 0 0
29.6 0 0
30 0 0
30.4 0 0
30.8 0 0
31.2 0 0
31.6 0 0
32 0 0
32.4 0 0
32.8 0 0
33.2 0 0
33.6 0 0
34 0 0
34.4 0 0
34.8 0 0
35.2 0 0
35.6 0 0
36 0 0
36.4 0 0
36.8 0 0
37.2 0 0
37.6 0 0
38 0 0
38.4 0 0
38.8 0 0
39.2 0 0
39.6 0 0
40 0 0
40.4 0 0
0 0.1 0
0.4 0.1 0
0.8 0.1 0
1.2 0.1 0
1.6 0.1 0
2 0.1 0
2.4 0.1 0
2.8 0.1 0
3.2 0.1 0
3.6 0.1 0
4 0.1 0
4.4 0.1 0
4.8 0.1 0
5.2 0.1 0
5.6 0.1 0
6 0.1 0
6.4 0.1 0
6.8 0.1 0
7.2 0.1 0
7.6 0.1 0
8 0.1 0
8.4 0.1 0
8.8 0.1 0
9.2 0.1 0
9.6 0.1 0
10 0.1 0
10.4 0.1 0
10.8 0.1 0
11.2 0.1 0
11.6 0.1 0
12 0.1 0
12.4 0.1 0
12.8 0.1 0
13.2 0.1 0
13.6 0.1 0
14 0.1 0
14.4 0.1 0
14.8 0.1 0
15.2 0.1 0
15.6 0.1 0
16 0.1 0
16.4 0.1 0
16.8 0.1 0
17.2 0.1 0
17.6 0.1 0
18 0.1 0
18.4 0.1 0
18.8 0.1 0
19.2 0.1 0
19.6 0.1 0
20 0.1 0
20.4 0.1 0
20.8 0.1 0
21.2 0.1 0
21.6 0.1 0
22 0.1 0
22.4 0.1 0
22.8 0.1 0
23.2 0.1 0
23.6 0.1 0
24 0.1 0
24.4 0.1 0
24.8 0.1 0
25.2 0.1 0
25.6 0.1 0
26 0.1 0
26.4 0.1 0
26.8 0.1 0
27.2 0.1 0
27.6 0.1 0
28 0.1 0
28.4 0.1 0
28.8 0.1 0
29.2 0.1 0
29.6 0.1 0
30 0.1 0
30.4 0.1 0
30.8 0.1 0
31.2 0.1 0
31.6 0.1 0
32 0.1 0
32.4 0.1 0
32.8 0.1 0
33.2 0.1 0
33.6 0.1 0
34 0.1 0
34.4 0.1 0
34.8 0.1 0
35.2 0.1 0
35.6 0.1 0
36 0.1 0
36.4 0.1 0
36.8 0.1 0
37.2 0.1 0
37.6 0.1 0
38 0.1 0
38.4 0.1 0
38.8 0.1 0
39.2 0.1 0
39.6 0.1 0
40 0.1 0
40.4 0.1 0
0 0.2 0
0.4 0.2 0
0.8 0.2 0
1.2 0.2 0
1.6 0.2 0
2 0.2 0
2.4 0.2 0
2.8 0.2 0
3.2 0.2 0
3.6 0.2 0
4 0.2 0
4.4 0.2 0
4.8 0.2 0
5.2 0.2 0
5.6 0.2 0
6 0.2 0
6.4 0.2 0
6.8 0.2 0
7.2 0.2 0
7.6 0.2 0
8 0.2 0
8.4 0.2 0
8.8 0.2 0
9.2 0.2 0
9.6 0.2 0
10 0.2 0
10.4 0.2 0
10.8 0.2 0
11.2 0.2 0
11.6 0.2 0
12 0.2 0
12.4 0.2 0
12.8 0.2 0
13.2 0.2 0
13.6 0.2 0
14 0.2 0
14.4 0.2 0
14.8 0.2 0
15.2 0.2 0
15.6 0.2 0
16 0.2 0
16.4 0.2 0
16.8 0.2 0
17.2 0.2 0
17.6 0.2 0
18 0.2 0
18.4 0.2 0
18.8 0.2 0
19.2 0.2 0
19.6 0.2 0
20 0.2 0
20.4 0.2 0
20.8 0.2 0
21.2 0.2 0
21.6 0.2 0
22 0.2 0
22.4 0.2 0
22.8 0.2 0
23.2 0.2 0
23.6 0.2 0
24 0.2 0
24.4 0.2 0
24.8 0.2 0
25.2 0.2 0
25.6 0.2 0
26 0.2 0
26.4 0.2 0
26.8 0.2 0
27.2 0.2 0
27.6 0.2 0
28 0.2 0
28.4 0.2 0
28.8 0.2 0
29.2 0.2 0
29.6 0.2 0
30 0.2 0
30.4 0.2 0
30.8 0.2 0
31.2 0.2 0
31.6 0.2 0
32 0.2 0
32.4 0.2 0
32.8 0.2 0
33.2 0.2 0
33.6 0.2 0
34 0.2 0
34.4 0.2 0
34.8 0.2 0
35.2 0.2 0
35.6 0.2 0
36 0.2 0
36.4 0.2 0
36.8 0.2 0
37.2 0.2 0
37.6 0.2 0
38 0.2 0
38.4 0.2 0
38.8 0.2 0
39.2 0.2 0
39.6 0.2 0
40 0.2 0
40.4 0.2 0
0 0.3 0
0.4 0.3 0
0.8 0.3 0
1.2 0.3 0
1.6 0.3 0
2 0.3 0
2.4 0.3 0
2.8 0.3 0
3.2 0.3 0
3.6 0.3 0
4 0.3 0
4.4 0.3 0
4.8 0.3 0
5.2 0.3 0
5.6 0.3 0
6 0.3 0
6.4 0.3 0
6.8 0.3 0
7.2 0.3 0
7.6 0.3 0
8 0.3 0
8.4 0.3 0
8.8 0.3 0
9.2 0.3 0
9.6 0.3 0
10 0.3 0
10.4 0.3 0
10.8 0.3 0
11.2 0.3 0
11.6 0.3 0
12 0.3 0
12.4 0.3 0
12.8 0.3 0
13.2 0.3 0
13.6 0.3 0
14 0.3 0
14.4 0.3 0
14.8 0.3 0
15.2 0.3 0
15.6 0.3 0
16 0.3 0
16.4 0.3 0
16.8 0.3 0
17.2 0.3 0
17.6 0.3 0
18 0.3 0
18.4 0.3 0
18.8 0.3 0
19.2 0.3 0
19.6 0.3 0
20 0.3 0
20.4 0.3 0
20.8 0.3 0
21.2 0.3 0
21.6 0.3 0
22 0.3 0
22.4 0.3 0
22.8 0.3 0
23.2 0.3 0
23.6 0.3 0
24 0.3 0
24.4 0.3 0
24.8 0.3 0
25.2 0.3 0
25.6 0.3 0
26 0.3 0
26.4 0.3 0
26.8 0.3 0
27.2 0.3 0
27.6 0.3 0
28 0.3 0
28.4 0.3 0
28.8 0.3 0
29.2 0.3 0
29.6 0.3 0
30 0.3 0
30.4 0.3 0
30.8 0.3 0
31.2 0.3 0
31.6 0.3 0
32 0.3 0
32.4 0.3 0
32.8 0.3 0
33.2 0.3 0
33.6 0.3 0
34 0.3 0
34.4 0.3 0
34.8 0.3 0
35.2 0.3 0
35.6 0.3 0
36 0.3 0
36.4 0.3 0
36.8 0.3 0
37.2 0.3 0
37.6 0.3 0
38 0.3 0
38.4 0.3 0
38.8 0.3 0
39.2 0.3 0
39.6 0.3 0
40 0.3 0
40.4 0.3 0
0 0.4 0
0.4 0.4 0
0.8 0.4 0
1.2 0.4 0
1.6 0.4 0
2 0.4 0
2.4 0.4 0
2.8 0.4 0
3.2 0.4 0
3.6 0.4 0
4 0.4 0
4.4 0.4 0
4.8 0.4 0
5.2 0.4 0
5.6 0.4 0
6 0.4 0
6.4 0.4 0
6.8 0.4 0
7.2 0.4 0
7.6 0.4 0
8 0.4 0
8.4 0.4 0
8.8 0.4 0
9.2 0.4 0
9.6 0.4 0
10 0.4 0
10.4 0.4 0
10.8 0.4 0
11.2 0.4 0
11.6 0.4 0
12 0.4 0
12.4 0.4 0
12.8 0.4 0
13.2 0.4 0
13.6 0.4 0
14 0.4 0
14.4 0.4 0
14.8 0.4 0
15.2 0.4 0
15.6 0.4 0
16 0.4 0
16.4 0.4 0
16.8 0.4 0
17.2 0.4 0
17.6 0.4 0
18 0.4 0
18.4 0.4 0
18.8 0.4 0
19.2 0.4 0
19.6 0.4 0
20 0.4 0
20.4 0.4 0
20.8 0.4 0
21.2 0.4 0
21.6 0.4 0
22 0.4 0
22.4 0.4 0
22.8 0.4 0
23.2 0.4 0
23.6 0.4 0
24 0.4 0
24.4 0.4 0
24.8 0.4 0
25.2 0.4 0
25.6 0.4 0
26 0.4 0
26.4 0.4 0
26.8 0.4 0
27.2 0.4 0
27.6 0.4 0
28 0.4 0
28.4 0.4 0
28.8 0.4 0
29.2 0.4 0
29.6 0.4 0
30 0.4 0
30.4 0.4 0
30.8 0.4 0
31.2 0.4 0
31.6 0.4 0
32 0.4 0
32.4 0.4 0
32.8 0.4 0
33.2 0.4 0
33.6 0.4 0
34 0.4 0
34.4 0.4 0
34.8 0.4 0
35.2 0.4 0
35.6 0.4 0
36 0.4 0
36.4 0.4 0
36.8 0.4 0
37.2 0.4 0
37.6 0.4 0
38 0.4 0
38.4 0.4 0
38.8 0.4 0
39.2 0.4 0
39.6 0.4 0
40 0.4 0
40.4 0.4 0
0 0.5 0
0.4 0.5 0
0.8 0.5 0
1.2 0.5 0
1.6 0.5 0
2 0.5 0
2.4 0.5 0
2.8 0.5 0
3.2 0.5 0
3.6 0.5 0
4 0.5 0
4.4 0.5 0
4.8 0.5 0
5.2 0.5 0
5.6 0.5 0
6 0.5 0
6.4 0.5 0
6.8 0.5 0
7.2 0.5 0
7.6 0.5 0
8 0.5 0
8.4 0.5 0
8.8 0.5 0
9.2 0.5 0
9.6 0.5 0
10 0.5 0
10.4 0.5 0
10.8 0.5 0
11.2 0.5 0
11.6 0.5 0
12 0.5 0
12.4 0.5 0
12.8 0.5 0
13.2 0.5 0
13.6 0.5 0
14 0.5 0
14.4 0.5 0
14.8 0.5 0
15.2 0.5 0
15.6 0.5 0
16 0.5 0
16.4 0.5 0
16.8 0.5 0
17.2 0.5 0
17.6 0.5 0
18 0.5 0
18.4 0.5 0
18.8 0.5 0
19.2 0.5 0
19.6 0.5 0
20 0.5 0
20.4 0.5 0
20.8 0.5 0
21.2 0.5 0
21.6 0.5 0
22 0.5 0
22.4 0.5 0
22.8 0.5 0
23.2 0.5 0
23.6 0.5 0
24 0.5 0
24.4 0.5 0
24.8 0.5 0
25.2 0.5 0
25.6 0.5 0
26 0.5 0
26.4 0.5 0
26.8 0.5 0
27.2 0.5 0
27.6 0.5 0
28 0.5 0
28.4 0.5 0
28.8 0.5 0
29.2 0.5 0
29.6 0.5 0
30 0.5 0
30.4 0.5 0
30.8 0.5 0
31.2 0.5 0
31.6 0.5 0
32 0.5 0
32.4 0.5 0
32.8 0.5 0
33.2 0.5 0
33.6 0.5 0
34 0.5 0
34.4 0.5 0
34.8 0.5 0
35.2 0.5 0
35.6 0.5 0
36 0.5 0
36.4 0.5 0
36.8 0.5 0
37.2 0.5 0
37.6 0.5 0
38 0.5 0
38.4 0.5 0
38.8 0.5 0
39.2 0.5 0
39.6 0.5 0
40 0.5 0
40.4 0.5 0
0 0.6 0
0.4 0.6 0
0.8 0.6 0
1.2 0.6 0
1.6 0.6 0
2 0.6 0
2.4 0.6 0
2.8 0.6 0
3.2 0.6 0
3.6 0.6 0
4 0.6 0
4.4 0.6 0
4.8 0.6 0
5.2 0.6 0
5.6 0.6 0
6 0.6 0
6.4 0.6 0
6.8 0.6 0
7.2 0.6 0
7.6 0.6 0
8 0.6 0
8.4 0.6 0
8.8 0.6 0
9.2 0.6 0
9.6 0.6 0
10 0.6 0
10.4 0.6 0
10.8 0.6 0
11.2 0.6 0
11.6 0.6 0
12 0.6 0
12.4 0.6 0
12.8 0.6 0
13.2 0.6 0
13.6 0.6 0
14 0.6 0
14.4 0.6 0
14.8 0.6 0
15.2 0.6 0
15.6 0.6 0
16 0.6 0
16.4 0.6 0
16.8 0.6 0
17.2 0.6 0
17.6 0.6 0
18 0.6 0
18.4 0.6 0
18.8 0.6 0
19.2 0.6 0
19.6 0.6 0
20 0.6 0
20.4 0.6 0
20.8 0.6 0
21.2 0.6 0
21.6 0.6 0
22 0.6 0
22.4 0.6 0
22.8 0.6 0
23.2 0.6 0
23.6 0.6 0
24 0.6 0
24.4 0.6 0
24.8 0.6 0
25.2 0.6 0
25.6 0.6 0
26 0.6 0
26.4 0.6 0
26.8 0.6 0
27.2 0.6 0
27.6 0.6 0
28 0.6 0
28.4 0.6 0
28.8 0.6 0
29.2 0.6 0
29.6 0.6 0
30 0.6 0
30.4 0.6 0
30.8 0.6 0
31.2 0.6 0
31.6 0.6 0
32 0.6 0
32.4 0.6 0
32.8 0.6 0
33.2 0.6 0
33.6 0.6 0
34 0.6 0
34.4 0.6 0
34.8 0.6 0
35.2 0.6 0
35.6 0.6 0
36 0.6 0
36.4 0.6 0
36.8 0.6 0
37.2 0.6 0
37.6 0.6 0
38 0.6 0
38.4 0.6 0
38.8 0.6 0
39.2 0.6 0
39.6 0.6 0
40 0.6 0
40.4 0.6 0
0 0.7 0
0.4 0.7 0
0.8 0.7 0
1.2 0.7 0
1.6 0.7 0
2 0.7 0
2.4 0.7 0
2.8 0.7 0
3.2 0.7 0
3.6 0.7 0
4 0.7 0
4.4 0.7 0
4.8 0.7 0
5.2 0.7 0
5.6 0.7 0
6 0.7 0
6.4 0.7 0
6.8 0.7 0
7.2 0.7 0
7.6 0.7 0
8 0.7 0
8.4 0.7 0
8.8 0.7 0
9.2 0.7 0
9.6 0.7 0
10 0.7 0
10.4 0.7 0
10.8 0.7 0
11.2 0.7 0
11.6 0.7 0
12 0.7 0
12.4 0.7 0
12.8 0.7 0
13.2 0.7 0
13.6 0.7 0
14 0.7 0
14.4 0.7 0
14.8 0.7 0
15.2 0.7 0
15.6 0.7 0
16 0.7 0
16.4 0.7 0
16.8 0.7 0
17.2 0.7 0
17.6 0.7 0
18 0.7 0
18.4 0.7 0
18.8 0.7 0
19.2 0.7 0
19.6 0.7 0
20 0.7 0
20.4 0.7 0
20.8 0.7 0
21.2 0.7 0
21.6 0.7 0
22 0.7 0
22.4 0.7 0
22.8 0.7 0
23.2 0.7 0
23.6 0.7 0
24 0.7 0
24.4 0.7 0
24.8 0.7 0
25.2 0.7 0
25.6 0.7 0
26 0.7 0
26.4 0.7 0
26.8 0.7 0
27.2 0.7 0
27.6 0.7 0
28 0.7 0
28.4 0.7 0
28.8 0.7 0
29.2 0.7 0
29.6 0.7 0
30 0.7 0
30.4 0.7 0
30.8 0.7 0
31.2 0.7 0
31.6 0.7 0
32 0.7 0
32.4 0.7 0
32.8 0.7 0
33.2 0.7 0
33.6 0.7 0
34 0.7 0
34.4 0.7 0
34.8 0.7 0
35.2 0.7 0
35.6 0.7 0
36 0.7 0
36.4 0.7 0
36.8 0.7 0
37.2 0.7 0
37.6 0.7 0
38 0.7 0
38.4 0.7 0
38.8 0.7 0
39.2 0.7 0
39.6 0.7 0
40 0.7 0
40.4 0.7 0
0 0.8 0
0.4 0.8 0
0.8 0.8 0
1.2 0.8 0
1.6 0.8 0
2 0.8 0
2.4 0.8 0
2.8 0.8 0
3.2 0.8 0
3.6 0.8 0
4 0.8 0
4.4 0.8 0
4.8 0.8 0
5.2 0.8 0
5.6 0.8 0
6 0.8 0
6.4 0.8 0
6.8 0.8 0
7.2 0.8 0
7.6 0.8 0
8 0.8 0
8.4 0.8 0
8.8 0.8 0
9.2 0.8 0
9.6 0.8 0
10 0.8 0
10.4 0.8 0
10.8 0.8 0
11.2 0.8 0
11.6 0.8 0
12 0.8 0
12.4 0.8 0
12.8 0.8 0
13.2 0.8 0
13.6 0.8 0
14 0.8 0
14.4 0.8 0
14.8 0.8 0
15.2 0.8 0
15.6 0.8 0
16 0.8 0
16.4 0.8 0
16.8 0.8 0
17.2 0.8 0
17.6 0.8 0
18 0.8 0
18.4 0.8 0
18.8 0.8 0
19.2 0.8 0
19.6 0.8 0
20 0.8 0
20.4 0.8 0
20.8 0.8 0
21.2 0.8 0
21.6 0.8 0
22 0.8 0
22.4 0.8 0
22.8 0.8 0
23.2 0.8 0
23.6 0.8 0
24 0.8 0
24.4 0.8 0
24.8 0.8 0
25.2 0.8 0
25.6 0.8 0
26 0.8 0
26.4 0.8 0
26.8 0.8 0
27.2 0.8 0
27.6 0.8 0
28 0.8 0
28.4 0.8 0
28.8 0.8 0
29.2 0.8 0
29.6 0.8 0
30 0.8 0
30.4 0.8 0
30.8 0.8 0
31.2 0.8 0
31.6 0.8 0
32 0.8 0
32.4 0.8 0
32.8 0.8 0
33.2 0.8 0
33.6 0.8 0
34 0.8 0
34.4 0.8 0
34.8 0.8 0
35.2 0.8 0
35.6 0.8 0
36 0.8 0
36.4 0.8 0
36.8 0.8 0
37.2 0.8 0
37.6 0.8 0
38 0.8 0
38.4 0.8 0
38.8 0.8 0
39.2 0.8 0
39.6 0.8 0
40 0.8 0
40.4 0.8 0
0 0.9 0
0.4 0.9 0
0.8 0.9 0
1.2 0.9 0
1.6 0.9 0
2 0.9 0
2.4 0.9 0
2.8 0.9 0
3.2 0.9 0
3.6 0.9 0
4 0.9 0
4.4 0.9 0
4.8 0.9 0
5.2 0.9 0
5.6 0.9 0
6 0.9 0
6.4 0.9 0
6.8 0.9 0
7.2 0.9 0
7.6 0.9 0
8 0.9 0
8.4 0.9 0
8.8 0.9 0
9.2 0.9 0
9.6 0.9 0
10 0.9 0
10.4 0.9 0
10.8 0.9 0
11.2 0.9 0
11.6 0.9 0
12 0.9 0
12.4 0.9 0
12.8 0.9 0
13.2 0.9 0
13.6 0.9 0
14 0.9 0
14.4 0.9 0
14.8 0.9 0
15.2 0.9 0
15.6 0.9 0
16 0.9 0
16.4 0.9 0
16.8 0.9 0
17.2 0.9 0
17.6 0.9 0
18 0.9 0
18.4 0.9 0
18.8 0.9 0
19.2 0.9 0
19.6 0.9 0
20 0.9 0
20.4 0.9 0
20.8 0.9 0
21.2 0.9 0
21.6 0.9 0
22 0.9 0
22.4 0.9 0
22.8 0.9 0
23.2 0.9 0
23.6 0.9 0
24 0.9 0
24.4 0.9 0
24.8 0.9 0
25.2 0.9 0
25.6 0.9 0
26 0.9 0
26.4 0.9 0
26.8 0.9 0
27.2 0.9 0
27.6 0.9 0
28 0.9 0
28.4 0.9 0
28.8 0.9 0
29.2 0.9 0
29.6 0.9 0
30 0.9 0
30.4 0.9 0
30.8 0.9 0
31.2 0.9 0
31.6 0.9 0
32 0.9 0
32.4 0.9 0
32.8 0.9 0
33.2 0.9 0
33.6 0.9 0
34 0.9 0
34.4 0.9 0
34.8 0.9 0
35.2 0.9 0
35.6 0.9 0
36 0.9 0
36.4 0.9 0
36.8 0.9 0
37.2 0.9 0
37.6 0.9 0
38 0.9 0
38.4 0.9 0
38.8 0.9 0
39.2 0.9 0
39.6 0.9 0
40 0.9 0
40.4 0.9 0
0 1 0
0.4 1 0
0.8 1 0
1.2 1 0
1.6 1 0
2 1 0
2.4 1 0
2.8 1 0
3.2 1 0
3.6 1 0
4 1 0
4.4 1 0
4.8 1 0
5.2 1 0
5.6 1 0
6 1 0
6.4 1 0
6.8 1 0
7.2 1 0
7.6 1 0
8 1 0
8.4 1 0
8.8 1 0
9.2 1 0
9.6 1 0
10 1 0
10.4 1 0
10.8 1 0
11.2 1 0
11.6 1 0
12 1 0
12.4 1 0
12.8 1 0
13.2 1 0
13.6 1 0
14 1 0
14.4 1 0
14.8 1 0
15.2 1 0
15.6 1 0
16 1 0
16.4 1 0
16.8 1 0
17.2 1 0
17.6 1 0
18 1 0
18.4 1 0
18.8 1 0
19.2 1 0
19.6 1 0
20 1 0
20.4 1 0
20.8 1 0
21.2 1 0
21.6 1 0
22 1 0
22.4 1 0
22.8 1 0
23.2 1 0
23.6 1 0
24 1 0
24.4 1 0
24.8 1 0
25.2 1 0
25.6 1 0
26 1 0
26.4 1 0
26.8 1 0
27.2 1 0
27.6 1 0
28 1 0
28.4 1 0
28.8 1 0
29.2 1 0
29.6 1 0
30 1 0
30.4 1 0
30.8 1 0
31.2 1 0
31.6 1 0
32 1 0
32.4 1 0
32.8 1 0
33.2 1 0
33.6 1 0
34 1 0
34.4 1 0
34.8 1 0
35.2 1 0
35.6 1 0
36 1 0
36.4 1 0
36.8 1 0
37.2 1 0
37.6 1 0
38 1 0
38.4 1 0
38.8 1 0
39.2 1 0
39.6 1 0
40 1 0
40.4 1 0
0 1.1 0
0.4 1.1 0
0.8 1.1 0
1.2 1.1 0
1.6 1.1 0
2 1.1 0
2.4 1.1 0
2.8 1.1 0
3.2 1.1 0
3.6 1.1 0
4 1.1 0
4.4 1.1 0
4.8 1.1 0
5.2 1.1 0
5.6 1.1 0
6 1.1 0
6.4 1.1 0
6.8 1.1 0
7.2 1.1 0
7.6 1.1 0
8 1.1 0
8.4 1.1 0
8.8 1.1 0
9.2 1.1 0
9.6 1.1 0
10 1.1 0
10.4 1.1 0
10.8 1.1 0
11.2 1.1 0
11.6 1.1 0
12 1.1 0
12.4 1.1 0
12.8 1.1 0
13.2 1.1 0
13.6 1.1 0
14 1.1 0
14.4 1.1 0
14.8 1.1 0
15.2 1.1 0
15.6 1.1 0
16 1.1 0
16.4 1.1 0
16.8 1.1 0
17.2 1.1 0
17.6 1.1 0
18 1.1 0
18.4 1.1 0
18.8 1.1 0
19.2 1.1 0
19.6 1.1 0
20 1.1 0
20.4 1.1 0
20.8 1.1 0
21.2 1.1 0
21.6 1.1 0
22 1.1 0
22.4 1.1 0
22.8 1.1 0
23.2 1.1 0
23.6 1.1 0
24 1.1 0
24.4 1.1 0
24.8 1.1 0
25.2 1.1 0
25.6 1.1 0
26 1.1 0
26.4 1.1 0
26.8 1.1 0
27.2 1.1 0
27.6 1.1 0
28 1.1 0
28.4 1.1 0
28.8 1.1 0
29.2 1.1 0
29.6 1.1 0
30 1.1 0
30.4 1.1 0
30.8 1.1 0
31.2 1.1 0
31.6 1.1 0
32 1.1 0
32.4 1.1 0
32.8 1.1 0
33.2 1.1 0
33.6 1.1 0
34 1.1 0
34.4 1.1 0
34.8 1.1 0
35.2 1.1 0
35.6 1.1 0
36 1.1 0
36.4 1.1 0
36.8 1.1 0
37.2 1.1 0
37.6 1.1 0
38 1.1 0
38.4 1.1 0
38.8 1.1 0
39.2 1.1 0
39.6 1.1 0
40 1.1 0
40.4 1.1 0

POINT_DATA 1224

SCALARS v double
LOOKUP_TABLE default
0
0
0
0
0
0
0
0
0
0
0
0
0
0
0
0
0
0
0
0
0
0
0
0
0
0
0
0
0
0
0
0
0
0
0
0
0
0
0
0
0
0
0
0
0
0
0
0
0
0
0
0
0
0
0
0
0
0
0
0
0
0
0
0
0
0
0
0
0
0
0
0
0
0
0
0
0
0
0
0
0
0
0
0
0
0
0
0
0
0
0
0
0
0
0
0
0
0
0
0
0
0
0
0.0787076
0.0554407
0.0327104
0.0178114
0.0096583
0.0055777
0.00354711
0.00247032
0.00183779
0.00142582
0.00113509
0.000918516
0.000751472
0.000619633
0.0005139
0.000428098
0.000357842
0.000299911
0.00025188
0.000211884
0.000178467
0.000150472
0.000126973
0.000107217
9.05848e-05
7.65622e-05
6.4717e-05
5.46835e-05
4.61526e-05
3.88654e-05
3.26086e-05
2.72118e-05
2.25426e-05
1.85012e-05
1.50137e-05
1.20245e-05
9.48918e-06
7.36829e-06
5.62339e-06
4.21465e-06
3.10044e-06
2.2381e-06
1.58553e-06
1.1029e-06
7.54111e-07
5.07804e-07
3.37812e-07
2.23107e-07
1.47392e-07
9.84602e-08
6.74631e-08
4.81905e-08
3.64097e-08
2.92922e-08
2.49802e-08
2.23262e-08
2.06544e-08
1.95479e-08
1.87521e-08
1.81189e-08
1.75675e-08
1.70561e-08
1.65639e-08
1.6081e-08
1.56025e-08
1.51262e-08
1.46511e-08
1.41765e-08
1.37024e-08
1.32285e-08
1.27549e-08
1.22813e-08
1.18078e-08
1.13342e-08
1.08604e-08
1.03864e-08
9.91219e-09
9.43801e-09
8.96434e-09
8.49195e-09
8.0218e-09
7.55544e-09
7.09367e-09
6.63688e-09
6.18466e-09
5.73607e-09
5.29029e-09
4.8461e-09
4.39675e-09
3.94623e-09
3.46404e-09
3.04872e-09
2.36645e-09
2.5985e-09
-9.41928e-11
5.25732e-09
-1.56693e-08
2.42999e-08
-8.22468e-08
-2.53794e-07
-2.53794e-07
0
0.0668416
0.060839
0.042293
0.0271276
0.0175004
0.0118522
0.0084921
0.00637033
0.00493629
0.0039108
0.00314667
0.00256045
0.00210112
0.00173543
0.00144067
0.00120074
0.0010039
0.000841407
0.000706593
0.000594298
0.000500464
0.000421863
0.000355895
0.000300444
0.000253767
0.000214416
0.000181174
0.000153013
0.000129066
0.000108608
9.10452e-05
7.59008e-05
6.28064e-05
5.14832e-05
4.17236e-05
3.33699e-05
2.6295e-05
2.03857e-05
1.55313e-05
1.16179e-05
8.52689e-06
6.13782e-06
4.33221e-06
2.99844e-06
2.03575e-06
1.35679e-06
8.88851e-07
5.73625e-07
3.65983e-07
2.32171e-07
1.47759e-07
9.56115e-08
6.40583e-08
4.53112e-08
3.42727e-08
2.779e-08
2.39967e-08
2.17478e-08
2.0347e-08
1.93906e-08
1.86577e-08
1.80339e-08
1.74627e-08
1.69166e-08
1.63825e-08
1.58542e-08
1.53288e-08
1.48049e-08
1.4282e-08
1.37597e-08
1.3238e-08
1.27166e-08
1.21955e-08
1.16746e-08
1.11539e-08
1.06332e-08
1.01127e-08
9.59272e-09
9.07378e-09
8.55679e-09
8.04284e-09
7.53413e-09
7.03141e-09
6.53486e-09
6.04338e-09
5.55543e-09
5.07077e-09
4.58873e-09
4.1001e-09
3.61159e-09
3.08046e-09
2.65346e-09
1.82693e-09
2.42609e-09
-1.96093e-09
8.15098e-09
-3.39308e-08
5.77262e-08
-4.23116e-07
-7.25922e-07
-7.25922e-07
0
0.0434614
0.0450425
0.0342517
0.0238914
0.0167607
0.0122648
0.00937333
0.0073933
0.00595021
0.00484991
0.00398642
0.00329628
0.00273792
0.00228217
0.00190766
0.00159823
0.00134148
0.00112766
0.000949076
0.00079957
0.000674165
0.000568811
0.000480195
0.000405579
0.000342691
0.000289622
0.000244763
0.000206748
0.000174423
0.000146816
0.000123128
0.000102717
8.508e-05
6.98339e-05
5.6692e-05
4.54359e-05
3.58906e-05
2.79026e-05
2.13241e-05
1.60044e-05
1.1788e-05
8.51617e-06
6.0329e-06
4.19029e-06
2.85403e-06
1.90703e-06
1.25111e-06
8.0704e-07
5.13057e-07
3.22668e-07
2.01992e-07
1.27122e-07
8.16756e-08
5.46476e-08
3.87574e-08
2.94749e-08
2.41214e-08
2.10419e-08
1.92188e-08
1.80561e-08
1.72251e-08
1.65554e-08
1.59628e-08
1.54067e-08
1.4868e-08
1.43376e-08
1.38115e-08
1.32876e-08
1.27652e-08
1.22439e-08
1.17234e-08
1.12037e-08
1.06846e-08
1.01661e-08
9.64809e-09
9.13059e-09
8.61375e-09
8.0979e-09
7.58375e-09
7.07234e-09
6.56482e-09
6.06405e-09
5.57085e-09
5.08532e-09
4.60583e-09
4.13011e-09
3.65857e-09
3.19043e-09
2.71629e-09
2.2384e-09
1.7216e-09
1.28831e-09
5.22473e-10
9.48942e-10
-3.37807e-09
7.92584e-09
-4.15842e-08
8.0788e-08
-6.51093e-07
-9.62631e-07
-9.62631e-07
0
0.0210569
0.0230875
0.0183629
0.0133674
0.00978216
0.0074449
0.00588656
0.00477601
0.00393347
0.00326684
0.00272647
0.00228252
0.00191492
0.00160905
0.00135369
0.00113997
0.000960757
0.000810245
0.000683681
0.000577149
0.000487402
0.000411748
0.00034794
0.000294097
0.00024864
0.000210231
0.000177733
0.000150177
0.000126738
0.000106721
8.95509e-05
7.4762e-05
6.19878e-05
5.09476e-05
4.14294e-05
3.32717e-05
2.63455e-05
2.05388e-05
1.57456e-05
1.18585e-05
8.76729e-06
6.35969e-06
4.52487e-06
3.15744e-06
2.16116e-06
1.45164e-06
9.5769e-07
6.21486e-07
3.97668e-07
2.51853e-07
1.58828e-07
1.00718e-07
6.52471e-08
4.40828e-08
3.15587e-08
2.4145e-08
1.9826e-08
1.73292e-08
1.58427e-08
1.48804e-08
1.41732e-08
1.35841e-08
1.30485e-08
1.25369e-08
1.20364e-08
1.15413e-08
1.10492e-08
1.05588e-08
1.00699e-08
9.58221e-09
9.09559e-09
8.60999e-09
8.12533e-09
7.64154e-09
7.15858e-09
6.67648e-09
6.19544e-09
5.71584e-09
5.23846e-09
4.76451e-09
4.29511e-09
3.83361e-09
3.38124e-09
2.93828e-09
2.50268e-09
2.07127e-09
1.64496e-09
1.22283e-09
7.96014e-10
3.59468e-10
-1.17847e-10
-5.51198e-10
-1.1628e-09
-1.05336e-09
-3.91119e-09
3.7447e-09
-3.02828e-08
6.03548e-08
-4.8607e-07
-6.85803e-07
-6.85803e-07
0
3.00776e-08
4.47535e-08
4.77748e-08
4.5895e-08
4.32866e-08
4.12143e-08
3.96322e-08
3.8288e-08
3.70482e-08
3.58867e-08
3.48196e-08
3.38651e-08
3.30277e-08
3.22939e-08
3.16331e-08
3.10012e-08
3.03481e-08
2.96289e-08
2.88148e-08
2.79018e-08
2.69138e-08
2.58978e-08
2.49139e-08
2.40207e-08
2.32633e-08
2.26664e-08
2.22329e-08
2.19482e-08
2.17866e-08
2.17165e-08
2.17049e-08
2.17194e-08
2.17301e-08
2.17109e-08
2.1641e-08
2.15063e-08
2.13001e-08
2.10228e-08
2.06806e-08
2.02834e-08
1.98425e-08
1.93692e-08
1.88733e-08
1.83629e-08
1.78437e-08
1.73194e-08
1.67904e-08
1.62504e-08
1.56808e-08
1.50501e-08
1.43447e-08
1.36374e-08
1.31261e-08
1.28926e-08
1.26658e-08
1.23019e-08
1.19341e-08
1.16128e-08
1.13105e-08
1.09917e-08
1.06386e-08
1.02519e-08
9.84086e-09
9.41484e-09
8.98085e-09
8.54319e-09
8.10428e-09
7.66541e-09
7.2272e-09
6.78997e-09
6.35382e-09
5.91877e-09
5.48477e-09
5.05179e-09
4.61979e-09
4.18882e-09
3.75911e-09
3.33108e-09
2.90551e-09
2.4838e-09
2.06701e-09
1.65819e-09
1.26087e-09
8.75661e-10
4.9926e-10
1.27079e-10
-2.39903e-10
-6.01769e-10
-9.68442e-10
-1.35001e-09
-1.74707e-09
-2.15422e-09
-2.55266e-09
-2.95627e-09
-3.37094e-09
-3.47377e-09
-3.4365e-09
-2.87208e-09
-2.29576e-09
4.71422e-11
4.71422e-11
0
-0.0210569
-0.0230874
-0.0183628
-0.0133673
-0.00978207
-0.00744482
-0.00588649
-0.00477594
-0.0039334
-0.00326677
-0.00272641
-0.00228245
-0.00191486
-0.00160899
-0.00135363
-0.00113991
-0.000960698
-0.000810187
-0.000683625
-0.000577094
-0.00048735
-0.000411697
-0.00034789
-0.00029405
-0.000248594
-0.000210186
-0.000177689
-0.000150133
-0.000126694
-0.000106677
-8.95074e-05
-7.47184e-05
-6.19442e-05
-5.0904e-05
-4.13859e-05
-3.32284e-05
-2.63025e-05
-2.04964e-05
-1.57038e-05
-1.18174e-05
-8.72703e-06
-6.32033e-06
-4.48646e-06
-3.12e-06
-2.12472e-06
-1.41621e-06
-9.23286e-07
-5.88127e-07
-3.65403e-07
-2.20786e-07
-1.29111e-07
-7.24092e-08
-3.80091e-08
-1.73466e-08
-5.21924e-09
1.63894e-09
5.23031e-09
7.00435e-09
7.794e-09
8.04423e-09
7.99439e-09
7.77908e-09
7.47531e-09
7.12621e-09
6.755e-09
6.37367e-09
5.98821e-09
5.60149e-09
5.21486e-09
4.82893e-09
4.44393e-09
4.05992e-09
3.67688e-09
3.29475e-09
2.91353e-09
2.53326e-09
2.15416e-09
1.77672e-09
1.40165e-09
1.03043e-09
6.64498e-10
3.03832e-10
-3.56431e-11
-3.58336e-10
-6.74289e-10
-9.88583e-10
-1.29979e-09
-1.60604e-09
-1.91634e-09
-2.247e-09
-2.57536e-09
-2.97754e-09
-3.13923e-09
-4.1435e-09
-1.96224e-09
-1.01665e-08
2.41981e-08
-6.56575e-08
4.81931e-07
6.8593e-07
6.8593e-07
0
-0.0434614
-0.0450424
-0.0342517
-0.0238913
-0.0167606
-0.0122647
-0.00937326
-0.00739324
-0.00595015
-0.00484985
-0.00398636
-0.00329623
-0.00273786
-0.00228212
-0.0019076
-0.00159818
-0.00134142
-0.0011276
-0.000949024
-0.00079952
-0.000674115
-0.000568763
-0.000480147
-0.000405533
-0.000342645
-0.000289577
-0.000244719
-0.000206705
-0.000174379
-0.000146772
-0.000123085
-0.000102673
-8.50359e-05
-6.97898e-05
-5.66478e-05
-4.53918e-05
-3.58468e-05
-2.78591e-05
-2.1281e-05
-1.5962e-05
-1.17462e-05
-8.47517e-06
-5.99271e-06
-4.15096e-06
-2.81559e-06
-1.8695e-06
-1.21452e-06
-7.71402e-07
-4.784e-07
-2.89051e-07
-1.69547e-07
-9.60154e-08
-5.1732e-08
-2.52575e-08
-9.73033e-09
-8.71706e-10
3.81685e-09
6.04144e-09
7.00719e-09
7.32873e-09
7.31581e-09
7.12968e-09
6.85575e-09
6.5388e-09
6.20162e-09
5.85545e-09
5.5057e-09
5.15486e-09
4.80407e-09
4.45382e-09
4.10428e-09
3.75547e-09
3.40734e-09
3.05985e-09
2.71294e-09
2.36668e-09
2.02128e-09
1.6772e-09
1.33518e-09
9.96547e-10
6.63175e-10
3.32886e-10
2.38623e-11
-2.61468e-10
-5.42617e-10
-8.2411e-10
-1.10541e-09
-1.38032e-09
-1.6541e-09
-1.95327e-09
-2.23328e-09
-2.64872e-09
-2.63333e-09
-4.05715e-09
-3.56532e-10
-1.24969e-08
3.73957e-08
-8.46338e-08
6.48215e-07
9.62877e-07
9.62877e-07
0
-0.0668415
-0.0608389
-0.0422929
-0.0271275
-0.0175004
-0.0118521
-0.00849204
-0.00637027
-0.00493623
-0.00391075
-0.00314662
-0.0025604
-0.00210107
-0.00173538
-0.00144062
-0.00120069
-0.00100385
-0.000841359
-0.000706546
-0.000594251
-0.000500418
-0.000421818
-0.00035585
-0.000300399
-0.000253723
-0.000214372
-0.00018113
-0.00015297
-0.000129022
-0.000108564
-9.1001e-05
-7.58564e-05
-6.27618e-05
-5.14384e-05
-4.16786e-05
-3.33249e-05
-2.62501e-05
-2.03409e-05
-1.54868e-05
-1.15737e-05
-8.48318e-06
-6.09466e-06
-4.28966e-06
-2.95658e-06
-1.99462e-06
-1.31643e-06
-8.49308e-07
-5.34916e-07
-3.28125e-07
-1.95174e-07
-1.11663e-07
-6.05892e-08
-3.02047e-08
-1.21202e-08
-1.19928e-09
4.66869e-09
7.44802e-09
8.68104e-09
9.12936e-09
9.1812e-09
9.0307e-09
8.77738e-09
8.47296e-09
8.14399e-09
7.80371e-09
7.45854e-09
7.11148e-09
6.76392e-09
6.41645e-09
6.06934e-09
5.72263e-09
5.37629e-09
5.03027e-09
4.68446e-09
4.33883e-09
3.99342e-09
3.64842e-09
3.30429e-09
2.96172e-09
2.62193e-09
2.2865e-09
1.95493e-09
1.62935e-09
1.31728e-09
1.01642e-09
7.20051e-10
4.2284e-10
1.45769e-10
-1.13394e-10
-4.09437e-10
-6.84398e-10
-1.11812e-09
-1.08016e-09
-2.53784e-09
1.0417e-09
-9.8993e-09
3.22099e-08
-5.94781e-08
4.2202e-07
7.26367e-07
7.26367e-07
0
-0.0787075
-0.0554406
-0.0327103
-0.0178113
-0.00965826
-0.00557766
-0.00354707
-0.00247028
-0.00183774
-0.00142577
-0.00113504
-0.000918471
-0.000751427
-0.000619588
-0.000513855
-0.000428053
-0.000357797
-0.000299867
-0.000251836
-0.00021184
-0.000178423
-0.000150428
-0.000126929
-0.000107173
-9.0541e-05
-7.65185e-05
-6.46732e-05
-5.46396e-05
-4.61086e-05
-3.88211e-05
-3.25642e-05
-2.71671e-05
-2.24976e-05
-1.84559e-05
-1.49682e-05
-1.19788e-05
-9.44333e-06
-7.32238e-06
-5.57753e-06
-4.16894e-06
-3.05496e-06
-2.19296e-06
-1.54081e-06
-1.05868e-06
-7.10467e-07
-4.648e-07
-2.95498e-07
-1.81524e-07
-1.06567e-07
-5.83995e-08
-2.81228e-08
-9.34107e-09
2.13909e-09
8.1135e-09
1.13155e-08
1.29318e-08
1.36175e-08
1.37779e-08
1.36637e-08
1.34103e-08
1.30855e-08
1.27244e-08
1.23452e-08
1.19573e-08
1.15653e-08
1.11717e-08
1.07773e-08
1.03829e-08
9.9885e-09
9.59427e-09
9.20017e-09
8.80613e-09
8.41207e-09
8.01788e-09
7.62349e-09
7.22895e-09
6.83445e-09
6.44041e-09
6.04751e-09
5.6568e-09
5.26958e-09
4.8862e-09
4.50609e-09
4.13401e-09
3.77007e-09
3.41063e-09
3.05164e-09
2.69421e-09
2.33904e-09
1.9706e-09
1.60854e-09
1.17522e-09
9.47259e-10
8.30628e-11
1.75608e-09
-4.11267e-09
1.61624e-08
-2.40095e-08
8.2477e-08
2.54341e-07
2.54341e-07
0
0
0
0
0
0
0
0
0
0
0
0
0
0
0
0
0
0
0
0
0
0
0
0
0
0
0
0
0
0
0
0
0
0
0
0
0
0
0
0
0
0
0
0
0
0
0
0
0
0
0
0
0
0
0
0
0
0
0
0
0
0
0
0
0
0
0
0
0
0
0
0
0
0
0
0
0
0
0
0
0
0
0
0
0
0
0
0
0
0
0
0
0
0
0
0
0
0
0
0
0
0
0
0
0
0
0
0
0
0
0
0
0
0
0
0
0
0
0
0
0
0
0
0
0
0
0
0
0
0
0
0
0
0
0
0
0
0
0
0
0
0
0
0
0
0
0
0
0
0
0
0
0
0
0
0
0
0
0
0
0
0
0
0
0
0
0
0
0
0
0
0
0
0
0
0
0
0
0
0
0
0
0
0
0
0
0
0
0
0
0
0
0
0
0
0
0
0
0
0
0
0
0
0
