# vtk DataFile Version 2.0
FlowField
ASCII
DATASET STRUCTURED_GRID
DIMENSIONS 101 11 1 
POINTS 1111 double
0 0 0
0.3 0 0
0.6 0 0
0.9 0 0
1.2 0 0
1.5 0 0
1.8 0 0
2.1 0 0
2.4 0 0
2.7 0 0
3 0 0
3.3 0 0
3.6 0 0
3.9 0 0
4.2 0 0
4.5 0 0
4.8 0 0
5.1 0 0
5.4 0 0
5.7 0 0
6 0 0
6.3 0 0
6.6 0 0
6.9 0 0
7.2 0 0
7.5 0 0
7.8 0 0
8.1 0 0
8.4 0 0
8.7 0 0
9 0 0
9.3 0 0
9.6 0 0
9.9 0 0
10.2 0 0
10.5 0 0
10.8 0 0
11.1 0 0
11.4 0 0
11.7 0 0
12 0 0
12.3 0 0
12.6 0 0
12.9 0 0
13.2 0 0
13.5 0 0
13.8 0 0
14.1 0 0
14.4 0 0
14.7 0 0
15 0 0
15.3 0 0
15.6 0 0
15.9 0 0
16.2 0 0
16.5 0 0
16.8 0 0
17.1 0 0
17.4 0 0
17.7 0 0
18 0 0
18.3 0 0
18.6 0 0
18.9 0 0
19.2 0 0
19.5 0 0
19.8 0 0
20.1 0 0
20.4 0 0
20.7 0 0
21 0 0
21.3 0 0
21.6 0 0
21.9 0 0
22.2 0 0
22.5 0 0
22.8 0 0
23.1 0 0
23.4 0 0
23.7 0 0
24 0 0
24.3 0 0
24.6 0 0
24.9 0 0
25.2 0 0
25.5 0 0
25.8 0 0
26.1 0 0
26.4 0 0
26.7 0 0
27 0 0
27.3 0 0
27.6 0 0
27.9 0 0
28.2 0 0
28.5 0 0
28.8 0 0
29.1 0 0
29.4 0 0
29.7 0 0
30 0 0
0 0.1 0
0.3 0.1 0
0.6 0.1 0
0.9 0.1 0
1.2 0.1 0
1.5 0.1 0
1.8 0.1 0
2.1 0.1 0
2.4 0.1 0
2.7 0.1 0
3 0.1 0
3.3 0.1 0
3.6 0.1 0
3.9 0.1 0
4.2 0.1 0
4.5 0.1 0
4.8 0.1 0
5.1 0.1 0
5.4 0.1 0
5.7 0.1 0
6 0.1 0
6.3 0.1 0
6.6 0.1 0
6.9 0.1 0
7.2 0.1 0
7.5 0.1 0
7.8 0.1 0
8.1 0.1 0
8.4 0.1 0
8.7 0.1 0
9 0.1 0
9.3 0.1 0
9.6 0.1 0
9.9 0.1 0
10.2 0.1 0
10.5 0.1 0
10.8 0.1 0
11.1 0.1 0
11.4 0.1 0
11.7 0.1 0
12 0.1 0
12.3 0.1 0
12.6 0.1 0
12.9 0.1 0
13.2 0.1 0
13.5 0.1 0
13.8 0.1 0
14.1 0.1 0
14.4 0.1 0
14.7 0.1 0
15 0.1 0
15.3 0.1 0
15.6 0.1 0
15.9 0.1 0
16.2 0.1 0
16.5 0.1 0
16.8 0.1 0
17.1 0.1 0
17.4 0.1 0
17.7 0.1 0
18 0.1 0
18.3 0.1 0
18.6 0.1 0
18.9 0.1 0
19.2 0.1 0
19.5 0.1 0
19.8 0.1 0
20.1 0.1 0
20.4 0.1 0
20.7 0.1 0
21 0.1 0
21.3 0.1 0
21.6 0.1 0
21.9 0.1 0
22.2 0.1 0
22.5 0.1 0
22.8 0.1 0
23.1 0.1 0
23.4 0.1 0
23.7 0.1 0
24 0.1 0
24.3 0.1 0
24.6 0.1 0
24.9 0.1 0
25.2 0.1 0
25.5 0.1 0
25.8 0.1 0
26.1 0.1 0
26.4 0.1 0
26.7 0.1 0
27 0.1 0
27.3 0.1 0
27.6 0.1 0
27.9 0.1 0
28.2 0.1 0
28.5 0.1 0
28.8 0.1 0
29.1 0.1 0
29.4 0.1 0
29.7 0.1 0
30 0.1 0
0 0.2 0
0.3 0.2 0
0.6 0.2 0
0.9 0.2 0
1.2 0.2 0
1.5 0.2 0
1.8 0.2 0
2.1 0.2 0
2.4 0.2 0
2.7 0.2 0
3 0.2 0
3.3 0.2 0
3.6 0.2 0
3.9 0.2 0
4.2 0.2 0
4.5 0.2 0
4.8 0.2 0
5.1 0.2 0
5.4 0.2 0
5.7 0.2 0
6 0.2 0
6.3 0.2 0
6.6 0.2 0
6.9 0.2 0
7.2 0.2 0
7.5 0.2 0
7.8 0.2 0
8.1 0.2 0
8.4 0.2 0
8.7 0.2 0
9 0.2 0
9.3 0.2 0
9.6 0.2 0
9.9 0.2 0
10.2 0.2 0
10.5 0.2 0
10.8 0.2 0
11.1 0.2 0
11.4 0.2 0
11.7 0.2 0
12 0.2 0
12.3 0.2 0
12.6 0.2 0
12.9 0.2 0
13.2 0.2 0
13.5 0.2 0
13.8 0.2 0
14.1 0.2 0
14.4 0.2 0
14.7 0.2 0
15 0.2 0
15.3 0.2 0
15.6 0.2 0
15.9 0.2 0
16.2 0.2 0
16.5 0.2 0
16.8 0.2 0
17.1 0.2 0
17.4 0.2 0
17.7 0.2 0
18 0.2 0
18.3 0.2 0
18.6 0.2 0
18.9 0.2 0
19.2 0.2 0
19.5 0.2 0
19.8 0.2 0
20.1 0.2 0
20.4 0.2 0
20.7 0.2 0
21 0.2 0
21.3 0.2 0
21.6 0.2 0
21.9 0.2 0
22.2 0.2 0
22.5 0.2 0
22.8 0.2 0
23.1 0.2 0
23.4 0.2 0
23.7 0.2 0
24 0.2 0
24.3 0.2 0
24.6 0.2 0
24.9 0.2 0
25.2 0.2 0
25.5 0.2 0
25.8 0.2 0
26.1 0.2 0
26.4 0.2 0
26.7 0.2 0
27 0.2 0
27.3 0.2 0
27.6 0.2 0
27.9 0.2 0
28.2 0.2 0
28.5 0.2 0
28.8 0.2 0
29.1 0.2 0
29.4 0.2 0
29.7 0.2 0
30 0.2 0
0 0.3 0
0.3 0.3 0
0.6 0.3 0
0.9 0.3 0
1.2 0.3 0
1.5 0.3 0
1.8 0.3 0
2.1 0.3 0
2.4 0.3 0
2.7 0.3 0
3 0.3 0
3.3 0.3 0
3.6 0.3 0
3.9 0.3 0
4.2 0.3 0
4.5 0.3 0
4.8 0.3 0
5.1 0.3 0
5.4 0.3 0
5.7 0.3 0
6 0.3 0
6.3 0.3 0
6.6 0.3 0
6.9 0.3 0
7.2 0.3 0
7.5 0.3 0
7.8 0.3 0
8.1 0.3 0
8.4 0.3 0
8.7 0.3 0
9 0.3 0
9.3 0.3 0
9.6 0.3 0
9.9 0.3 0
10.2 0.3 0
10.5 0.3 0
10.8 0.3 0
11.1 0.3 0
11.4 0.3 0
11.7 0.3 0
12 0.3 0
12.3 0.3 0
12.6 0.3 0
12.9 0.3 0
13.2 0.3 0
13.5 0.3 0
13.8 0.3 0
14.1 0.3 0
14.4 0.3 0
14.7 0.3 0
15 0.3 0
15.3 0.3 0
15.6 0.3 0
15.9 0.3 0
16.2 0.3 0
16.5 0.3 0
16.8 0.3 0
17.1 0.3 0
17.4 0.3 0
17.7 0.3 0
18 0.3 0
18.3 0.3 0
18.6 0.3 0
18.9 0.3 0
19.2 0.3 0
19.5 0.3 0
19.8 0.3 0
20.1 0.3 0
20.4 0.3 0
20.7 0.3 0
21 0.3 0
21.3 0.3 0
21.6 0.3 0
21.9 0.3 0
22.2 0.3 0
22.5 0.3 0
22.8 0.3 0
23.1 0.3 0
23.4 0.3 0
23.7 0.3 0
24 0.3 0
24.3 0.3 0
24.6 0.3 0
24.9 0.3 0
25.2 0.3 0
25.5 0.3 0
25.8 0.3 0
26.1 0.3 0
26.4 0.3 0
26.7 0.3 0
27 0.3 0
27.3 0.3 0
27.6 0.3 0
27.9 0.3 0
28.2 0.3 0
28.5 0.3 0
28.8 0.3 0
29.1 0.3 0
29.4 0.3 0
29.7 0.3 0
30 0.3 0
0 0.4 0
0.3 0.4 0
0.6 0.4 0
0.9 0.4 0
1.2 0.4 0
1.5 0.4 0
1.8 0.4 0
2.1 0.4 0
2.4 0.4 0
2.7 0.4 0
3 0.4 0
3.3 0.4 0
3.6 0.4 0
3.9 0.4 0
4.2 0.4 0
4.5 0.4 0
4.8 0.4 0
5.1 0.4 0
5.4 0.4 0
5.7 0.4 0
6 0.4 0
6.3 0.4 0
6.6 0.4 0
6.9 0.4 0
7.2 0.4 0
7.5 0.4 0
7.8 0.4 0
8.1 0.4 0
8.4 0.4 0
8.7 0.4 0
9 0.4 0
9.3 0.4 0
9.6 0.4 0
9.9 0.4 0
10.2 0.4 0
10.5 0.4 0
10.8 0.4 0
11.1 0.4 0
11.4 0.4 0
11.7 0.4 0
12 0.4 0
12.3 0.4 0
12.6 0.4 0
12.9 0.4 0
13.2 0.4 0
13.5 0.4 0
13.8 0.4 0
14.1 0.4 0
14.4 0.4 0
14.7 0.4 0
15 0.4 0
15.3 0.4 0
15.6 0.4 0
15.9 0.4 0
16.2 0.4 0
16.5 0.4 0
16.8 0.4 0
17.1 0.4 0
17.4 0.4 0
17.7 0.4 0
18 0.4 0
18.3 0.4 0
18.6 0.4 0
18.9 0.4 0
19.2 0.4 0
19.5 0.4 0
19.8 0.4 0
20.1 0.4 0
20.4 0.4 0
20.7 0.4 0
21 0.4 0
21.3 0.4 0
21.6 0.4 0
21.9 0.4 0
22.2 0.4 0
22.5 0.4 0
22.8 0.4 0
23.1 0.4 0
23.4 0.4 0
23.7 0.4 0
24 0.4 0
24.3 0.4 0
24.6 0.4 0
24.9 0.4 0
25.2 0.4 0
25.5 0.4 0
25.8 0.4 0
26.1 0.4 0
26.4 0.4 0
26.7 0.4 0
27 0.4 0
27.3 0.4 0
27.6 0.4 0
27.9 0.4 0
28.2 0.4 0
28.5 0.4 0
28.8 0.4 0
29.1 0.4 0
29.4 0.4 0
29.7 0.4 0
30 0.4 0
0 0.5 0
0.3 0.5 0
0.6 0.5 0
0.9 0.5 0
1.2 0.5 0
1.5 0.5 0
1.8 0.5 0
2.1 0.5 0
2.4 0.5 0
2.7 0.5 0
3 0.5 0
3.3 0.5 0
3.6 0.5 0
3.9 0.5 0
4.2 0.5 0
4.5 0.5 0
4.8 0.5 0
5.1 0.5 0
5.4 0.5 0
5.7 0.5 0
6 0.5 0
6.3 0.5 0
6.6 0.5 0
6.9 0.5 0
7.2 0.5 0
7.5 0.5 0
7.8 0.5 0
8.1 0.5 0
8.4 0.5 0
8.7 0.5 0
9 0.5 0
9.3 0.5 0
9.6 0.5 0
9.9 0.5 0
10.2 0.5 0
10.5 0.5 0
10.8 0.5 0
11.1 0.5 0
11.4 0.5 0
11.7 0.5 0
12 0.5 0
12.3 0.5 0
12.6 0.5 0
12.9 0.5 0
13.2 0.5 0
13.5 0.5 0
13.8 0.5 0
14.1 0.5 0
14.4 0.5 0
14.7 0.5 0
15 0.5 0
15.3 0.5 0
15.6 0.5 0
15.9 0.5 0
16.2 0.5 0
16.5 0.5 0
16.8 0.5 0
17.1 0.5 0
17.4 0.5 0
17.7 0.5 0
18 0.5 0
18.3 0.5 0
18.6 0.5 0
18.9 0.5 0
19.2 0.5 0
19.5 0.5 0
19.8 0.5 0
20.1 0.5 0
20.4 0.5 0
20.7 0.5 0
21 0.5 0
21.3 0.5 0
21.6 0.5 0
21.9 0.5 0
22.2 0.5 0
22.5 0.5 0
22.8 0.5 0
23.1 0.5 0
23.4 0.5 0
23.7 0.5 0
24 0.5 0
24.3 0.5 0
24.6 0.5 0
24.9 0.5 0
25.2 0.5 0
25.5 0.5 0
25.8 0.5 0
26.1 0.5 0
26.4 0.5 0
26.7 0.5 0
27 0.5 0
27.3 0.5 0
27.6 0.5 0
27.9 0.5 0
28.2 0.5 0
28.5 0.5 0
28.8 0.5 0
29.1 0.5 0
29.4 0.5 0
29.7 0.5 0
30 0.5 0
0 0.6 0
0.3 0.6 0
0.6 0.6 0
0.9 0.6 0
1.2 0.6 0
1.5 0.6 0
1.8 0.6 0
2.1 0.6 0
2.4 0.6 0
2.7 0.6 0
3 0.6 0
3.3 0.6 0
3.6 0.6 0
3.9 0.6 0
4.2 0.6 0
4.5 0.6 0
4.8 0.6 0
5.1 0.6 0
5.4 0.6 0
5.7 0.6 0
6 0.6 0
6.3 0.6 0
6.6 0.6 0
6.9 0.6 0
7.2 0.6 0
7.5 0.6 0
7.8 0.6 0
8.1 0.6 0
8.4 0.6 0
8.7 0.6 0
9 0.6 0
9.3 0.6 0
9.6 0.6 0
9.9 0.6 0
10.2 0.6 0
10.5 0.6 0
10.8 0.6 0
11.1 0.6 0
11.4 0.6 0
11.7 0.6 0
12 0.6 0
12.3 0.6 0
12.6 0.6 0
12.9 0.6 0
13.2 0.6 0
13.5 0.6 0
13.8 0.6 0
14.1 0.6 0
14.4 0.6 0
14.7 0.6 0
15 0.6 0
15.3 0.6 0
15.6 0.6 0
15.9 0.6 0
16.2 0.6 0
16.5 0.6 0
16.8 0.6 0
17.1 0.6 0
17.4 0.6 0
17.7 0.6 0
18 0.6 0
18.3 0.6 0
18.6 0.6 0
18.9 0.6 0
19.2 0.6 0
19.5 0.6 0
19.8 0.6 0
20.1 0.6 0
20.4 0.6 0
20.7 0.6 0
21 0.6 0
21.3 0.6 0
21.6 0.6 0
21.9 0.6 0
22.2 0.6 0
22.5 0.6 0
22.8 0.6 0
23.1 0.6 0
23.4 0.6 0
23.7 0.6 0
24 0.6 0
24.3 0.6 0
24.6 0.6 0
24.9 0.6 0
25.2 0.6 0
25.5 0.6 0
25.8 0.6 0
26.1 0.6 0
26.4 0.6 0
26.7 0.6 0
27 0.6 0
27.3 0.6 0
27.6 0.6 0
27.9 0.6 0
28.2 0.6 0
28.5 0.6 0
28.8 0.6 0
29.1 0.6 0
29.4 0.6 0
29.7 0.6 0
30 0.6 0
0 0.7 0
0.3 0.7 0
0.6 0.7 0
0.9 0.7 0
1.2 0.7 0
1.5 0.7 0
1.8 0.7 0
2.1 0.7 0
2.4 0.7 0
2.7 0.7 0
3 0.7 0
3.3 0.7 0
3.6 0.7 0
3.9 0.7 0
4.2 0.7 0
4.5 0.7 0
4.8 0.7 0
5.1 0.7 0
5.4 0.7 0
5.7 0.7 0
6 0.7 0
6.3 0.7 0
6.6 0.7 0
6.9 0.7 0
7.2 0.7 0
7.5 0.7 0
7.8 0.7 0
8.1 0.7 0
8.4 0.7 0
8.7 0.7 0
9 0.7 0
9.3 0.7 0
9.6 0.7 0
9.9 0.7 0
10.2 0.7 0
10.5 0.7 0
10.8 0.7 0
11.1 0.7 0
11.4 0.7 0
11.7 0.7 0
12 0.7 0
12.3 0.7 0
12.6 0.7 0
12.9 0.7 0
13.2 0.7 0
13.5 0.7 0
13.8 0.7 0
14.1 0.7 0
14.4 0.7 0
14.7 0.7 0
15 0.7 0
15.3 0.7 0
15.6 0.7 0
15.9 0.7 0
16.2 0.7 0
16.5 0.7 0
16.8 0.7 0
17.1 0.7 0
17.4 0.7 0
17.7 0.7 0
18 0.7 0
18.3 0.7 0
18.6 0.7 0
18.9 0.7 0
19.2 0.7 0
19.5 0.7 0
19.8 0.7 0
20.1 0.7 0
20.4 0.7 0
20.7 0.7 0
21 0.7 0
21.3 0.7 0
21.6 0.7 0
21.9 0.7 0
22.2 0.7 0
22.5 0.7 0
22.8 0.7 0
23.1 0.7 0
23.4 0.7 0
23.7 0.7 0
24 0.7 0
24.3 0.7 0
24.6 0.7 0
24.9 0.7 0
25.2 0.7 0
25.5 0.7 0
25.8 0.7 0
26.1 0.7 0
26.4 0.7 0
26.7 0.7 0
27 0.7 0
27.3 0.7 0
27.6 0.7 0
27.9 0.7 0
28.2 0.7 0
28.5 0.7 0
28.8 0.7 0
29.1 0.7 0
29.4 0.7 0
29.7 0.7 0
30 0.7 0
0 0.8 0
0.3 0.8 0
0.6 0.8 0
0.9 0.8 0
1.2 0.8 0
1.5 0.8 0
1.8 0.8 0
2.1 0.8 0
2.4 0.8 0
2.7 0.8 0
3 0.8 0
3.3 0.8 0
3.6 0.8 0
3.9 0.8 0
4.2 0.8 0
4.5 0.8 0
4.8 0.8 0
5.1 0.8 0
5.4 0.8 0
5.7 0.8 0
6 0.8 0
6.3 0.8 0
6.6 0.8 0
6.9 0.8 0
7.2 0.8 0
7.5 0.8 0
7.8 0.8 0
8.1 0.8 0
8.4 0.8 0
8.7 0.8 0
9 0.8 0
9.3 0.8 0
9.6 0.8 0
9.9 0.8 0
10.2 0.8 0
10.5 0.8 0
10.8 0.8 0
11.1 0.8 0
11.4 0.8 0
11.7 0.8 0
12 0.8 0
12.3 0.8 0
12.6 0.8 0
12.9 0.8 0
13.2 0.8 0
13.5 0.8 0
13.8 0.8 0
14.1 0.8 0
14.4 0.8 0
14.7 0.8 0
15 0.8 0
15.3 0.8 0
15.6 0.8 0
15.9 0.8 0
16.2 0.8 0
16.5 0.8 0
16.8 0.8 0
17.1 0.8 0
17.4 0.8 0
17.7 0.8 0
18 0.8 0
18.3 0.8 0
18.6 0.8 0
18.9 0.8 0
19.2 0.8 0
19.5 0.8 0
19.8 0.8 0
20.1 0.8 0
20.4 0.8 0
20.7 0.8 0
21 0.8 0
21.3 0.8 0
21.6 0.8 0
21.9 0.8 0
22.2 0.8 0
22.5 0.8 0
22.8 0.8 0
23.1 0.8 0
23.4 0.8 0
23.7 0.8 0
24 0.8 0
24.3 0.8 0
24.6 0.8 0
24.9 0.8 0
25.2 0.8 0
25.5 0.8 0
25.8 0.8 0
26.1 0.8 0
26.4 0.8 0
26.7 0.8 0
27 0.8 0
27.3 0.8 0
27.6 0.8 0
27.9 0.8 0
28.2 0.8 0
28.5 0.8 0
28.8 0.8 0
29.1 0.8 0
29.4 0.8 0
29.7 0.8 0
30 0.8 0
0 0.9 0
0.3 0.9 0
0.6 0.9 0
0.9 0.9 0
1.2 0.9 0
1.5 0.9 0
1.8 0.9 0
2.1 0.9 0
2.4 0.9 0
2.7 0.9 0
3 0.9 0
3.3 0.9 0
3.6 0.9 0
3.9 0.9 0
4.2 0.9 0
4.5 0.9 0
4.8 0.9 0
5.1 0.9 0
5.4 0.9 0
5.7 0.9 0
6 0.9 0
6.3 0.9 0
6.6 0.9 0
6.9 0.9 0
7.2 0.9 0
7.5 0.9 0
7.8 0.9 0
8.1 0.9 0
8.4 0.9 0
8.7 0.9 0
9 0.9 0
9.3 0.9 0
9.6 0.9 0
9.9 0.9 0
10.2 0.9 0
10.5 0.9 0
10.8 0.9 0
11.1 0.9 0
11.4 0.9 0
11.7 0.9 0
12 0.9 0
12.3 0.9 0
12.6 0.9 0
12.9 0.9 0
13.2 0.9 0
13.5 0.9 0
13.8 0.9 0
14.1 0.9 0
14.4 0.9 0
14.7 0.9 0
15 0.9 0
15.3 0.9 0
15.6 0.9 0
15.9 0.9 0
16.2 0.9 0
16.5 0.9 0
16.8 0.9 0
17.1 0.9 0
17.4 0.9 0
17.7 0.9 0
18 0.9 0
18.3 0.9 0
18.6 0.9 0
18.9 0.9 0
19.2 0.9 0
19.5 0.9 0
19.8 0.9 0
20.1 0.9 0
20.4 0.9 0
20.7 0.9 0
21 0.9 0
21.3 0.9 0
21.6 0.9 0
21.9 0.9 0
22.2 0.9 0
22.5 0.9 0
22.8 0.9 0
23.1 0.9 0
23.4 0.9 0
23.7 0.9 0
24 0.9 0
24.3 0.9 0
24.6 0.9 0
24.9 0.9 0
25.2 0.9 0
25.5 0.9 0
25.8 0.9 0
26.1 0.9 0
26.4 0.9 0
26.7 0.9 0
27 0.9 0
27.3 0.9 0
27.6 0.9 0
27.9 0.9 0
28.2 0.9 0
28.5 0.9 0
28.8 0.9 0
29.1 0.9 0
29.4 0.9 0
29.7 0.9 0
30 0.9 0
0 1 0
0.3 1 0
0.6 1 0
0.9 1 0
1.2 1 0
1.5 1 0
1.8 1 0
2.1 1 0
2.4 1 0
2.7 1 0
3 1 0
3.3 1 0
3.6 1 0
3.9 1 0
4.2 1 0
4.5 1 0
4.8 1 0
5.1 1 0
5.4 1 0
5.7 1 0
6 1 0
6.3 1 0
6.6 1 0
6.9 1 0
7.2 1 0
7.5 1 0
7.8 1 0
8.1 1 0
8.4 1 0
8.7 1 0
9 1 0
9.3 1 0
9.6 1 0
9.9 1 0
10.2 1 0
10.5 1 0
10.8 1 0
11.1 1 0
11.4 1 0
11.7 1 0
12 1 0
12.3 1 0
12.6 1 0
12.9 1 0
13.2 1 0
13.5 1 0
13.8 1 0
14.1 1 0
14.4 1 0
14.7 1 0
15 1 0
15.3 1 0
15.6 1 0
15.9 1 0
16.2 1 0
16.5 1 0
16.8 1 0
17.1 1 0
17.4 1 0
17.7 1 0
18 1 0
18.3 1 0
18.6 1 0
18.9 1 0
19.2 1 0
19.5 1 0
19.8 1 0
20.1 1 0
20.4 1 0
20.7 1 0
21 1 0
21.3 1 0
21.6 1 0
21.9 1 0
22.2 1 0
22.5 1 0
22.8 1 0
23.1 1 0
23.4 1 0
23.7 1 0
24 1 0
24.3 1 0
24.6 1 0
24.9 1 0
25.2 1 0
25.5 1 0
25.8 1 0
26.1 1 0
26.4 1 0
26.7 1 0
27 1 0
27.3 1 0
27.6 1 0
27.9 1 0
28.2 1 0
28.5 1 0
28.8 1 0
29.1 1 0
29.4 1 0
29.7 1 0
30 1 0

POINT_DATA 1111

SCALARS p double
LOOKUP_TABLE default
2.10041
2.10041
2.03419
1.99012
1.952
1.91548
1.87923
1.84299
1.80675
1.7705
1.73425
1.698
1.66175
1.6255
1.58924
1.55299
1.51674
1.48049
1.44424
1.40799
1.37174
1.33548
1.29923
1.26298
1.22673
1.19048
1.15423
1.11798
1.08172
1.04547
1.00922
0.972968
0.936716
0.900464
0.864212
0.82796
0.791708
0.755455
0.719203
0.682951
0.646698
0.610446
0.574193
0.537941
0.501688
0.465436
0.429183
0.39293
0.356677
0.320424
0.284171
0.247918
0.211665
0.175411
0.139158
0.102905
0.0666512
0.0303976
-0.00585609
-0.0421099
-0.0783637
-0.114618
-0.150872
-0.187126
-0.22338
-0.259634
-0.295889
-0.332143
-0.368398
-0.404652
-0.440907
-0.477162
-0.513417
-0.549672
-0.585928
-0.622183
-0.658438
-0.694694
-0.730949
-0.767205
-0.803461
-0.839717
-0.875973
-0.91223
-0.948486
-0.984742
-1.021
-1.05726
-1.09351
-1.12977
-1.16603
-1.20228
-1.23854
-1.2748
-1.31106
-1.34732
-1.38358
-1.41989
-1.45632
-1.49239
1.49239
2.10041
2.10041
2.03419
1.99012
1.952
1.91548
1.87923
1.84299
1.80675
1.7705
1.73425
1.698
1.66175
1.6255
1.58924
1.55299
1.51674
1.48049
1.44424
1.40799
1.37174
1.33548
1.29923
1.26298
1.22673
1.19048
1.15423
1.11798
1.08172
1.04547
1.00922
0.972968
0.936716
0.900464
0.864212
0.82796
0.791708
0.755455
0.719203
0.682951
0.646698
0.610446
0.574193
0.537941
0.501688
0.465436
0.429183
0.39293
0.356677
0.320424
0.284171
0.247918
0.211665
0.175411
0.139158
0.102905
0.0666512
0.0303976
-0.00585609
-0.0421099
-0.0783637
-0.114618
-0.150872
-0.187126
-0.22338
-0.259634
-0.295889
-0.332143
-0.368398
-0.404652
-0.440907
-0.477162
-0.513417
-0.549672
-0.585928
-0.622183
-0.658438
-0.694694
-0.730949
-0.767205
-0.803461
-0.839717
-0.875973
-0.91223
-0.948486
-0.984742
-1.021
-1.05726
-1.09351
-1.12977
-1.16603
-1.20228
-1.23854
-1.2748
-1.31106
-1.34732
-1.38358
-1.41989
-1.45632
-1.49239
1.49239
2.08087
2.08087
2.03268
1.99023
1.95214
1.91554
1.87925
1.843
1.80675
1.7705
1.73425
1.698
1.66175
1.6255
1.58924
1.55299
1.51674
1.48049
1.44424
1.40799
1.37174
1.33548
1.29923
1.26298
1.22673
1.19048
1.15423
1.11798
1.08172
1.04547
1.00922
0.972968
0.936716
0.900464
0.864212
0.82796
0.791708
0.755455
0.719203
0.682951
0.646698
0.610446
0.574193
0.537941
0.501688
0.465436
0.429183
0.39293
0.356677
0.320424
0.284171
0.247918
0.211665
0.175411
0.139158
0.102905
0.0666512
0.0303976
-0.00585611
-0.0421099
-0.0783637
-0.114618
-0.150872
-0.187126
-0.22338
-0.259634
-0.295889
-0.332143
-0.368398
-0.404652
-0.440907
-0.477162
-0.513417
-0.549672
-0.585928
-0.622183
-0.658438
-0.694694
-0.73095
-0.767205
-0.803461
-0.839717
-0.875973
-0.91223
-0.948486
-0.984742
-1.021
-1.05726
-1.09351
-1.12977
-1.16603
-1.20228
-1.23854
-1.2748
-1.31106
-1.34731
-1.38358
-1.41985
-1.45612
-1.4923
1.4923
2.06811
2.06811
2.03113
1.99065
1.95248
1.91566
1.87928
1.84301
1.80675
1.7705
1.73425
1.698
1.66175
1.6255
1.58924
1.55299
1.51674
1.48049
1.44424
1.40799
1.37174
1.33548
1.29923
1.26298
1.22673
1.19048
1.15423
1.11798
1.08172
1.04547
1.00922
0.972968
0.936716
0.900464
0.864212
0.82796
0.791708
0.755455
0.719203
0.682951
0.646698
0.610446
0.574193
0.537941
0.501688
0.465436
0.429183
0.39293
0.356677
0.320424
0.284171
0.247918
0.211665
0.175411
0.139158
0.102905
0.0666511
0.0303975
-0.00585613
-0.0421099
-0.0783637
-0.114618
-0.150872
-0.187126
-0.22338
-0.259634
-0.295889
-0.332143
-0.368398
-0.404653
-0.440907
-0.477162
-0.513417
-0.549672
-0.585928
-0.622183
-0.658438
-0.694694
-0.73095
-0.767205
-0.803461
-0.839717
-0.875973
-0.91223
-0.948486
-0.984742
-1.021
-1.05726
-1.09351
-1.12977
-1.16603
-1.20228
-1.23854
-1.2748
-1.31106
-1.34731
-1.38357
-1.41981
-1.45593
-1.49221
1.49221
2.06105
2.06105
2.0299
1.99083
1.95269
1.91575
1.87931
1.84301
1.80675
1.7705
1.73425
1.698
1.66175
1.6255
1.58924
1.55299
1.51674
1.48049
1.44424
1.40799
1.37174
1.33548
1.29923
1.26298
1.22673
1.19048
1.15423
1.11798
1.08172
1.04547
1.00922
0.972968
0.936716
0.900464
0.864212
0.82796
0.791708
0.755455
0.719203
0.682951
0.646698
0.610446
0.574193
0.537941
0.501688
0.465435
0.429183
0.39293
0.356677
0.320424
0.284171
0.247918
0.211665
0.175411
0.139158
0.102905
0.0666511
0.0303975
-0.00585615
-0.0421099
-0.0783638
-0.114618
-0.150872
-0.187126
-0.22338
-0.259634
-0.295889
-0.332143
-0.368398
-0.404653
-0.440907
-0.477162
-0.513417
-0.549672
-0.585928
-0.622183
-0.658438
-0.694694
-0.73095
-0.767205
-0.803461
-0.839717
-0.875973
-0.91223
-0.948486
-0.984742
-1.021
-1.05726
-1.09351
-1.12977
-1.16603
-1.20228
-1.23854
-1.2748
-1.31106
-1.34731
-1.38356
-1.41978
-1.45582
-1.49215
1.49215
2.05879
2.05879
2.02944
1.99087
1.95275
1.91578
1.87932
1.84301
1.80675
1.7705
1.73425
1.698
1.66175
1.6255
1.58924
1.55299
1.51674
1.48049
1.44424
1.40799
1.37174
1.33548
1.29923
1.26298
1.22673
1.19048
1.15423
1.11798
1.08172
1.04547
1.00922
0.972968
0.936716
0.900464
0.864212
0.82796
0.791708
0.755455
0.719203
0.682951
0.646698
0.610446
0.574193
0.537941
0.501688
0.465435
0.429183
0.39293
0.356677
0.320424
0.284171
0.247918
0.211665
0.175411
0.139158
0.102905
0.0666511
0.0303975
-0.00585618
-0.0421099
-0.0783638
-0.114618
-0.150872
-0.187126
-0.22338
-0.259634
-0.295889
-0.332143
-0.368398
-0.404653
-0.440907
-0.477162
-0.513417
-0.549672
-0.585928
-0.622183
-0.658438
-0.694694
-0.73095
-0.767205
-0.803461
-0.839717
-0.875973
-0.91223
-0.948486
-0.984743
-1.021
-1.05726
-1.09351
-1.12977
-1.16603
-1.20228
-1.23854
-1.2748
-1.31106
-1.34731
-1.38356
-1.41977
-1.45578
-1.49213
1.49213
2.06105
2.06105
2.0299
1.99083
1.95269
1.91575
1.87931
1.84301
1.80675
1.7705
1.73425
1.698
1.66175
1.6255
1.58924
1.55299
1.51674
1.48049
1.44424
1.40799
1.37174
1.33548
1.29923
1.26298
1.22673
1.19048
1.15423
1.11798
1.08172
1.04547
1.00922
0.972968
0.936716
0.900464
0.864212
0.82796
0.791708
0.755455
0.719203
0.682951
0.646698
0.610446
0.574193
0.537941
0.501688
0.465435
0.429183
0.39293
0.356677
0.320424
0.284171
0.247918
0.211665
0.175411
0.139158
0.102905
0.0666511
0.0303975
-0.00585621
-0.04211
-0.0783638
-0.114618
-0.150872
-0.187126
-0.22338
-0.259634
-0.295889
-0.332143
-0.368398
-0.404653
-0.440907
-0.477162
-0.513417
-0.549672
-0.585928
-0.622183
-0.658438
-0.694694
-0.73095
-0.767205
-0.803461
-0.839717
-0.875973
-0.91223
-0.948486
-0.984743
-1.021
-1.05726
-1.09351
-1.12977
-1.16603
-1.20228
-1.23854
-1.2748
-1.31106
-1.34731
-1.38356
-1.41978
-1.45582
-1.49215
1.49215
2.06811
2.06811
2.03113
1.99065
1.95248
1.91566
1.87928
1.84301
1.80675
1.7705
1.73425
1.698
1.66175
1.6255
1.58924
1.55299
1.51674
1.48049
1.44424
1.40799
1.37174
1.33548
1.29923
1.26298
1.22673
1.19048
1.15423
1.11798
1.08172
1.04547
1.00922
0.972968
0.936716
0.900464
0.864212
0.82796
0.791707
0.755455
0.719203
0.682951
0.646698
0.610446
0.574193
0.537941
0.501688
0.465435
0.429183
0.39293
0.356677
0.320424
0.284171
0.247918
0.211665
0.175411
0.139158
0.102905
0.066651
0.0303974
-0.00585624
-0.04211
-0.0783638
-0.114618
-0.150872
-0.187126
-0.22338
-0.259634
-0.295889
-0.332143
-0.368398
-0.404653
-0.440907
-0.477162
-0.513417
-0.549672
-0.585928
-0.622183
-0.658438
-0.694694
-0.73095
-0.767205
-0.803461
-0.839717
-0.875974
-0.91223
-0.948486
-0.984743
-1.021
-1.05726
-1.09351
-1.12977
-1.16603
-1.20228
-1.23854
-1.2748
-1.31106
-1.34731
-1.38357
-1.41981
-1.45593
-1.49221
1.49221
2.08087
2.08087
2.03268
1.99023
1.95214
1.91554
1.87925
1.843
1.80675
1.7705
1.73425
1.698
1.66175
1.6255
1.58924
1.55299
1.51674
1.48049
1.44424
1.40799
1.37174
1.33548
1.29923
1.26298
1.22673
1.19048
1.15423
1.11798
1.08172
1.04547
1.00922
0.972968
0.936716
0.900464
0.864212
0.82796
0.791707
0.755455
0.719203
0.682951
0.646698
0.610446
0.574193
0.537941
0.501688
0.465435
0.429183
0.39293
0.356677
0.320424
0.284171
0.247918
0.211665
0.175411
0.139158
0.102905
0.066651
0.0303974
-0.00585627
-0.04211
-0.0783639
-0.114618
-0.150872
-0.187126
-0.22338
-0.259634
-0.295889
-0.332143
-0.368398
-0.404653
-0.440907
-0.477162
-0.513417
-0.549673
-0.585928
-0.622183
-0.658439
-0.694694
-0.73095
-0.767206
-0.803461
-0.839717
-0.875974
-0.91223
-0.948486
-0.984743
-1.021
-1.05726
-1.09351
-1.12977
-1.16603
-1.20228
-1.23854
-1.2748
-1.31106
-1.34732
-1.38358
-1.41985
-1.45612
-1.4923
1.4923
2.10041
2.10041
2.03419
1.99012
1.952
1.91548
1.87923
1.84299
1.80675
1.7705
1.73425
1.698
1.66175
1.6255
1.58924
1.55299
1.51674
1.48049
1.44424
1.40799
1.37174
1.33548
1.29923
1.26298
1.22673
1.19048
1.15423
1.11798
1.08172
1.04547
1.00922
0.972968
0.936716
0.900464
0.864212
0.82796
0.791707
0.755455
0.719203
0.682951
0.646698
0.610446
0.574193
0.537941
0.501688
0.465435
0.429183
0.39293
0.356677
0.320424
0.284171
0.247918
0.211665
0.175411
0.139158
0.102904
0.066651
0.0303974
-0.0058563
-0.0421101
-0.0783639
-0.114618
-0.150872
-0.187126
-0.22338
-0.259635
-0.295889
-0.332143
-0.368398
-0.404653
-0.440908
-0.477162
-0.513417
-0.549673
-0.585928
-0.622183
-0.658439
-0.694694
-0.73095
-0.767206
-0.803461
-0.839717
-0.875974
-0.91223
-0.948486
-0.984743
-1.021
-1.05726
-1.09351
-1.12977
-1.16603
-1.20228
-1.23854
-1.2748
-1.31106
-1.34732
-1.38358
-1.41989
-1.45632
-1.49239
1.49239
2.10041
2.10041
2.03419
1.99012
1.952
1.91548
1.87923
1.84299
1.80675
1.7705
1.73425
1.698
1.66175
1.6255
1.58924
1.55299
1.51674
1.48049
1.44424
1.40799
1.37174
1.33548
1.29923
1.26298
1.22673
1.19048
1.15423
1.11798
1.08172
1.04547
1.00922
0.972968
0.936716
0.900464
0.864212
0.82796
0.791707
0.755455
0.719203
0.682951
0.646698
0.610446
0.574193
0.537941
0.501688
0.465435
0.429183
0.39293
0.356677
0.320424
0.284171
0.247918
0.211665
0.175411
0.139158
0.102904
0.066651
0.0303974
-0.0058563
-0.0421101
-0.0783639
-0.114618
-0.150872
-0.187126
-0.22338
-0.259635
-0.295889
-0.332143
-0.368398
-0.404653
-0.440908
-0.477162
-0.513417
-0.549673
-0.585928
-0.622183
-0.658439
-0.694694
-0.73095
-0.767206
-0.803461
-0.839717
-0.875974
-0.91223
-0.948486
-0.984743
-1.021
-1.05726
-1.09351
-1.12977
-1.16603
-1.20228
-1.23854
-1.2748
-1.31106
-1.34732
-1.38358
-1.41989
-1.45632
-1.49239
1.49239
