# vtk DataFile Version 2.0
FlowField
ASCII
DATASET STRUCTURED_GRID
DIMENSIONS 102 1 12 
POINTS 1224 double
0 0 0
0.4 0 0
0.8 0 0
1.2 0 0
1.6 0 0
2 0 0
2.4 0 0
2.8 0 0
3.2 0 0
3.6 0 0
4 0 0
4.4 0 0
4.8 0 0
5.2 0 0
5.6 0 0
6 0 0
6.4 0 0
6.8 0 0
7.2 0 0
7.6 0 0
8 0 0
8.4 0 0
8.8 0 0
9.2 0 0
9.6 0 0
10 0 0
10.4 0 0
10.8 0 0
11.2 0 0
11.6 0 0
12 0 0
12.4 0 0
12.8 0 0
13.2 0 0
13.6 0 0
14 0 0
14.4 0 0
14.8 0 0
15.2 0 0
15.6 0 0
16 0 0
16.4 0 0
16.8 0 0
17.2 0 0
17.6 0 0
18 0 0
18.4 0 0
18.8 0 0
19.2 0 0
19.6 0 0
20 0 0
20.4 0 0
20.8 0 0
21.2 0 0
21.6 0 0
22 0 0
22.4 0 0
22.8 0 0
23.2 0 0
23.6 0 0
24 0 0
24.4 0 0
24.8 0 0
25.2 0 0
25.6 0 0
26 0 0
26.4 0 0
26.8 0 0
27.2 0 0
27.6 0 0
28 0 0
28.4 0 0
28.8 0 0
29.2 0 0
29.6 0 0
30 0 0
30.4 0 0
30.8 0 0
31.2 0 0
31.6 0 0
32 0 0
32.4 0 0
32.8 0 0
33.2 0 0
33.6 0 0
34 0 0
34.4 0 0
34.8 0 0
35.2 0 0
35.6 0 0
36 0 0
36.4 0 0
36.8 0 0
37.2 0 0
37.6 0 0
38 0 0
38.4 0 0
38.8 0 0
39.2 0 0
39.6 0 0
40 0 0
40.4 0 0
0 0.1 0
0.4 0.1 0
0.8 0.1 0
1.2 0.1 0
1.6 0.1 0
2 0.1 0
2.4 0.1 0
2.8 0.1 0
3.2 0.1 0
3.6 0.1 0
4 0.1 0
4.4 0.1 0
4.8 0.1 0
5.2 0.1 0
5.6 0.1 0
6 0.1 0
6.4 0.1 0
6.8 0.1 0
7.2 0.1 0
7.6 0.1 0
8 0.1 0
8.4 0.1 0
8.8 0.1 0
9.2 0.1 0
9.6 0.1 0
10 0.1 0
10.4 0.1 0
10.8 0.1 0
11.2 0.1 0
11.6 0.1 0
12 0.1 0
12.4 0.1 0
12.8 0.1 0
13.2 0.1 0
13.6 0.1 0
14 0.1 0
14.4 0.1 0
14.8 0.1 0
15.2 0.1 0
15.6 0.1 0
16 0.1 0
16.4 0.1 0
16.8 0.1 0
17.2 0.1 0
17.6 0.1 0
18 0.1 0
18.4 0.1 0
18.8 0.1 0
19.2 0.1 0
19.6 0.1 0
20 0.1 0
20.4 0.1 0
20.8 0.1 0
21.2 0.1 0
21.6 0.1 0
22 0.1 0
22.4 0.1 0
22.8 0.1 0
23.2 0.1 0
23.6 0.1 0
24 0.1 0
24.4 0.1 0
24.8 0.1 0
25.2 0.1 0
25.6 0.1 0
26 0.1 0
26.4 0.1 0
26.8 0.1 0
27.2 0.1 0
27.6 0.1 0
28 0.1 0
28.4 0.1 0
28.8 0.1 0
29.2 0.1 0
29.6 0.1 0
30 0.1 0
30.4 0.1 0
30.8 0.1 0
31.2 0.1 0
31.6 0.1 0
32 0.1 0
32.4 0.1 0
32.8 0.1 0
33.2 0.1 0
33.6 0.1 0
34 0.1 0
34.4 0.1 0
34.8 0.1 0
35.2 0.1 0
35.6 0.1 0
36 0.1 0
36.4 0.1 0
36.8 0.1 0
37.2 0.1 0
37.6 0.1 0
38 0.1 0
38.4 0.1 0
38.8 0.1 0
39.2 0.1 0
39.6 0.1 0
40 0.1 0
40.4 0.1 0
0 0.2 0
0.4 0.2 0
0.8 0.2 0
1.2 0.2 0
1.6 0.2 0
2 0.2 0
2.4 0.2 0
2.8 0.2 0
3.2 0.2 0
3.6 0.2 0
4 0.2 0
4.4 0.2 0
4.8 0.2 0
5.2 0.2 0
5.6 0.2 0
6 0.2 0
6.4 0.2 0
6.8 0.2 0
7.2 0.2 0
7.6 0.2 0
8 0.2 0
8.4 0.2 0
8.8 0.2 0
9.2 0.2 0
9.6 0.2 0
10 0.2 0
10.4 0.2 0
10.8 0.2 0
11.2 0.2 0
11.6 0.2 0
12 0.2 0
12.4 0.2 0
12.8 0.2 0
13.2 0.2 0
13.6 0.2 0
14 0.2 0
14.4 0.2 0
14.8 0.2 0
15.2 0.2 0
15.6 0.2 0
16 0.2 0
16.4 0.2 0
16.8 0.2 0
17.2 0.2 0
17.6 0.2 0
18 0.2 0
18.4 0.2 0
18.8 0.2 0
19.2 0.2 0
19.6 0.2 0
20 0.2 0
20.4 0.2 0
20.8 0.2 0
21.2 0.2 0
21.6 0.2 0
22 0.2 0
22.4 0.2 0
22.8 0.2 0
23.2 0.2 0
23.6 0.2 0
24 0.2 0
24.4 0.2 0
24.8 0.2 0
25.2 0.2 0
25.6 0.2 0
26 0.2 0
26.4 0.2 0
26.8 0.2 0
27.2 0.2 0
27.6 0.2 0
28 0.2 0
28.4 0.2 0
28.8 0.2 0
29.2 0.2 0
29.6 0.2 0
30 0.2 0
30.4 0.2 0
30.8 0.2 0
31.2 0.2 0
31.6 0.2 0
32 0.2 0
32.4 0.2 0
32.8 0.2 0
33.2 0.2 0
33.6 0.2 0
34 0.2 0
34.4 0.2 0
34.8 0.2 0
35.2 0.2 0
35.6 0.2 0
36 0.2 0
36.4 0.2 0
36.8 0.2 0
37.2 0.2 0
37.6 0.2 0
38 0.2 0
38.4 0.2 0
38.8 0.2 0
39.2 0.2 0
39.6 0.2 0
40 0.2 0
40.4 0.2 0
0 0.3 0
0.4 0.3 0
0.8 0.3 0
1.2 0.3 0
1.6 0.3 0
2 0.3 0
2.4 0.3 0
2.8 0.3 0
3.2 0.3 0
3.6 0.3 0
4 0.3 0
4.4 0.3 0
4.8 0.3 0
5.2 0.3 0
5.6 0.3 0
6 0.3 0
6.4 0.3 0
6.8 0.3 0
7.2 0.3 0
7.6 0.3 0
8 0.3 0
8.4 0.3 0
8.8 0.3 0
9.2 0.3 0
9.6 0.3 0
10 0.3 0
10.4 0.3 0
10.8 0.3 0
11.2 0.3 0
11.6 0.3 0
12 0.3 0
12.4 0.3 0
12.8 0.3 0
13.2 0.3 0
13.6 0.3 0
14 0.3 0
14.4 0.3 0
14.8 0.3 0
15.2 0.3 0
15.6 0.3 0
16 0.3 0
16.4 0.3 0
16.8 0.3 0
17.2 0.3 0
17.6 0.3 0
18 0.3 0
18.4 0.3 0
18.8 0.3 0
19.2 0.3 0
19.6 0.3 0
20 0.3 0
20.4 0.3 0
20.8 0.3 0
21.2 0.3 0
21.6 0.3 0
22 0.3 0
22.4 0.3 0
22.8 0.3 0
23.2 0.3 0
23.6 0.3 0
24 0.3 0
24.4 0.3 0
24.8 0.3 0
25.2 0.3 0
25.6 0.3 0
26 0.3 0
26.4 0.3 0
26.8 0.3 0
27.2 0.3 0
27.6 0.3 0
28 0.3 0
28.4 0.3 0
28.8 0.3 0
29.2 0.3 0
29.6 0.3 0
30 0.3 0
30.4 0.3 0
30.8 0.3 0
31.2 0.3 0
31.6 0.3 0
32 0.3 0
32.4 0.3 0
32.8 0.3 0
33.2 0.3 0
33.6 0.3 0
34 0.3 0
34.4 0.3 0
34.8 0.3 0
35.2 0.3 0
35.6 0.3 0
36 0.3 0
36.4 0.3 0
36.8 0.3 0
37.2 0.3 0
37.6 0.3 0
38 0.3 0
38.4 0.3 0
38.8 0.3 0
39.2 0.3 0
39.6 0.3 0
40 0.3 0
40.4 0.3 0
0 0.4 0
0.4 0.4 0
0.8 0.4 0
1.2 0.4 0
1.6 0.4 0
2 0.4 0
2.4 0.4 0
2.8 0.4 0
3.2 0.4 0
3.6 0.4 0
4 0.4 0
4.4 0.4 0
4.8 0.4 0
5.2 0.4 0
5.6 0.4 0
6 0.4 0
6.4 0.4 0
6.8 0.4 0
7.2 0.4 0
7.6 0.4 0
8 0.4 0
8.4 0.4 0
8.8 0.4 0
9.2 0.4 0
9.6 0.4 0
10 0.4 0
10.4 0.4 0
10.8 0.4 0
11.2 0.4 0
11.6 0.4 0
12 0.4 0
12.4 0.4 0
12.8 0.4 0
13.2 0.4 0
13.6 0.4 0
14 0.4 0
14.4 0.4 0
14.8 0.4 0
15.2 0.4 0
15.6 0.4 0
16 0.4 0
16.4 0.4 0
16.8 0.4 0
17.2 0.4 0
17.6 0.4 0
18 0.4 0
18.4 0.4 0
18.8 0.4 0
19.2 0.4 0
19.6 0.4 0
20 0.4 0
20.4 0.4 0
20.8 0.4 0
21.2 0.4 0
21.6 0.4 0
22 0.4 0
22.4 0.4 0
22.8 0.4 0
23.2 0.4 0
23.6 0.4 0
24 0.4 0
24.4 0.4 0
24.8 0.4 0
25.2 0.4 0
25.6 0.4 0
26 0.4 0
26.4 0.4 0
26.8 0.4 0
27.2 0.4 0
27.6 0.4 0
28 0.4 0
28.4 0.4 0
28.8 0.4 0
29.2 0.4 0
29.6 0.4 0
30 0.4 0
30.4 0.4 0
30.8 0.4 0
31.2 0.4 0
31.6 0.4 0
32 0.4 0
32.4 0.4 0
32.8 0.4 0
33.2 0.4 0
33.6 0.4 0
34 0.4 0
34.4 0.4 0
34.8 0.4 0
35.2 0.4 0
35.6 0.4 0
36 0.4 0
36.4 0.4 0
36.8 0.4 0
37.2 0.4 0
37.6 0.4 0
38 0.4 0
38.4 0.4 0
38.8 0.4 0
39.2 0.4 0
39.6 0.4 0
40 0.4 0
40.4 0.4 0
0 0.5 0
0.4 0.5 0
0.8 0.5 0
1.2 0.5 0
1.6 0.5 0
2 0.5 0
2.4 0.5 0
2.8 0.5 0
3.2 0.5 0
3.6 0.5 0
4 0.5 0
4.4 0.5 0
4.8 0.5 0
5.2 0.5 0
5.6 0.5 0
6 0.5 0
6.4 0.5 0
6.8 0.5 0
7.2 0.5 0
7.6 0.5 0
8 0.5 0
8.4 0.5 0
8.8 0.5 0
9.2 0.5 0
9.6 0.5 0
10 0.5 0
10.4 0.5 0
10.8 0.5 0
11.2 0.5 0
11.6 0.5 0
12 0.5 0
12.4 0.5 0
12.8 0.5 0
13.2 0.5 0
13.6 0.5 0
14 0.5 0
14.4 0.5 0
14.8 0.5 0
15.2 0.5 0
15.6 0.5 0
16 0.5 0
16.4 0.5 0
16.8 0.5 0
17.2 0.5 0
17.6 0.5 0
18 0.5 0
18.4 0.5 0
18.8 0.5 0
19.2 0.5 0
19.6 0.5 0
20 0.5 0
20.4 0.5 0
20.8 0.5 0
21.2 0.5 0
21.6 0.5 0
22 0.5 0
22.4 0.5 0
22.8 0.5 0
23.2 0.5 0
23.6 0.5 0
24 0.5 0
24.4 0.5 0
24.8 0.5 0
25.2 0.5 0
25.6 0.5 0
26 0.5 0
26.4 0.5 0
26.8 0.5 0
27.2 0.5 0
27.6 0.5 0
28 0.5 0
28.4 0.5 0
28.8 0.5 0
29.2 0.5 0
29.6 0.5 0
30 0.5 0
30.4 0.5 0
30.8 0.5 0
31.2 0.5 0
31.6 0.5 0
32 0.5 0
32.4 0.5 0
32.8 0.5 0
33.2 0.5 0
33.6 0.5 0
34 0.5 0
34.4 0.5 0
34.8 0.5 0
35.2 0.5 0
35.6 0.5 0
36 0.5 0
36.4 0.5 0
36.8 0.5 0
37.2 0.5 0
37.6 0.5 0
38 0.5 0
38.4 0.5 0
38.8 0.5 0
39.2 0.5 0
39.6 0.5 0
40 0.5 0
40.4 0.5 0
0 0.6 0
0.4 0.6 0
0.8 0.6 0
1.2 0.6 0
1.6 0.6 0
2 0.6 0
2.4 0.6 0
2.8 0.6 0
3.2 0.6 0
3.6 0.6 0
4 0.6 0
4.4 0.6 0
4.8 0.6 0
5.2 0.6 0
5.6 0.6 0
6 0.6 0
6.4 0.6 0
6.8 0.6 0
7.2 0.6 0
7.6 0.6 0
8 0.6 0
8.4 0.6 0
8.8 0.6 0
9.2 0.6 0
9.6 0.6 0
10 0.6 0
10.4 0.6 0
10.8 0.6 0
11.2 0.6 0
11.6 0.6 0
12 0.6 0
12.4 0.6 0
12.8 0.6 0
13.2 0.6 0
13.6 0.6 0
14 0.6 0
14.4 0.6 0
14.8 0.6 0
15.2 0.6 0
15.6 0.6 0
16 0.6 0
16.4 0.6 0
16.8 0.6 0
17.2 0.6 0
17.6 0.6 0
18 0.6 0
18.4 0.6 0
18.8 0.6 0
19.2 0.6 0
19.6 0.6 0
20 0.6 0
20.4 0.6 0
20.8 0.6 0
21.2 0.6 0
21.6 0.6 0
22 0.6 0
22.4 0.6 0
22.8 0.6 0
23.2 0.6 0
23.6 0.6 0
24 0.6 0
24.4 0.6 0
24.8 0.6 0
25.2 0.6 0
25.6 0.6 0
26 0.6 0
26.4 0.6 0
26.8 0.6 0
27.2 0.6 0
27.6 0.6 0
28 0.6 0
28.4 0.6 0
28.8 0.6 0
29.2 0.6 0
29.6 0.6 0
30 0.6 0
30.4 0.6 0
30.8 0.6 0
31.2 0.6 0
31.6 0.6 0
32 0.6 0
32.4 0.6 0
32.8 0.6 0
33.2 0.6 0
33.6 0.6 0
34 0.6 0
34.4 0.6 0
34.8 0.6 0
35.2 0.6 0
35.6 0.6 0
36 0.6 0
36.4 0.6 0
36.8 0.6 0
37.2 0.6 0
37.6 0.6 0
38 0.6 0
38.4 0.6 0
38.8 0.6 0
39.2 0.6 0
39.6 0.6 0
40 0.6 0
40.4 0.6 0
0 0.7 0
0.4 0.7 0
0.8 0.7 0
1.2 0.7 0
1.6 0.7 0
2 0.7 0
2.4 0.7 0
2.8 0.7 0
3.2 0.7 0
3.6 0.7 0
4 0.7 0
4.4 0.7 0
4.8 0.7 0
5.2 0.7 0
5.6 0.7 0
6 0.7 0
6.4 0.7 0
6.8 0.7 0
7.2 0.7 0
7.6 0.7 0
8 0.7 0
8.4 0.7 0
8.8 0.7 0
9.2 0.7 0
9.6 0.7 0
10 0.7 0
10.4 0.7 0
10.8 0.7 0
11.2 0.7 0
11.6 0.7 0
12 0.7 0
12.4 0.7 0
12.8 0.7 0
13.2 0.7 0
13.6 0.7 0
14 0.7 0
14.4 0.7 0
14.8 0.7 0
15.2 0.7 0
15.6 0.7 0
16 0.7 0
16.4 0.7 0
16.8 0.7 0
17.2 0.7 0
17.6 0.7 0
18 0.7 0
18.4 0.7 0
18.8 0.7 0
19.2 0.7 0
19.6 0.7 0
20 0.7 0
20.4 0.7 0
20.8 0.7 0
21.2 0.7 0
21.6 0.7 0
22 0.7 0
22.4 0.7 0
22.8 0.7 0
23.2 0.7 0
23.6 0.7 0
24 0.7 0
24.4 0.7 0
24.8 0.7 0
25.2 0.7 0
25.6 0.7 0
26 0.7 0
26.4 0.7 0
26.8 0.7 0
27.2 0.7 0
27.6 0.7 0
28 0.7 0
28.4 0.7 0
28.8 0.7 0
29.2 0.7 0
29.6 0.7 0
30 0.7 0
30.4 0.7 0
30.8 0.7 0
31.2 0.7 0
31.6 0.7 0
32 0.7 0
32.4 0.7 0
32.8 0.7 0
33.2 0.7 0
33.6 0.7 0
34 0.7 0
34.4 0.7 0
34.8 0.7 0
35.2 0.7 0
35.6 0.7 0
36 0.7 0
36.4 0.7 0
36.8 0.7 0
37.2 0.7 0
37.6 0.7 0
38 0.7 0
38.4 0.7 0
38.8 0.7 0
39.2 0.7 0
39.6 0.7 0
40 0.7 0
40.4 0.7 0
0 0.8 0
0.4 0.8 0
0.8 0.8 0
1.2 0.8 0
1.6 0.8 0
2 0.8 0
2.4 0.8 0
2.8 0.8 0
3.2 0.8 0
3.6 0.8 0
4 0.8 0
4.4 0.8 0
4.8 0.8 0
5.2 0.8 0
5.6 0.8 0
6 0.8 0
6.4 0.8 0
6.8 0.8 0
7.2 0.8 0
7.6 0.8 0
8 0.8 0
8.4 0.8 0
8.8 0.8 0
9.2 0.8 0
9.6 0.8 0
10 0.8 0
10.4 0.8 0
10.8 0.8 0
11.2 0.8 0
11.6 0.8 0
12 0.8 0
12.4 0.8 0
12.8 0.8 0
13.2 0.8 0
13.6 0.8 0
14 0.8 0
14.4 0.8 0
14.8 0.8 0
15.2 0.8 0
15.6 0.8 0
16 0.8 0
16.4 0.8 0
16.8 0.8 0
17.2 0.8 0
17.6 0.8 0
18 0.8 0
18.4 0.8 0
18.8 0.8 0
19.2 0.8 0
19.6 0.8 0
20 0.8 0
20.4 0.8 0
20.8 0.8 0
21.2 0.8 0
21.6 0.8 0
22 0.8 0
22.4 0.8 0
22.8 0.8 0
23.2 0.8 0
23.6 0.8 0
24 0.8 0
24.4 0.8 0
24.8 0.8 0
25.2 0.8 0
25.6 0.8 0
26 0.8 0
26.4 0.8 0
26.8 0.8 0
27.2 0.8 0
27.6 0.8 0
28 0.8 0
28.4 0.8 0
28.8 0.8 0
29.2 0.8 0
29.6 0.8 0
30 0.8 0
30.4 0.8 0
30.8 0.8 0
31.2 0.8 0
31.6 0.8 0
32 0.8 0
32.4 0.8 0
32.8 0.8 0
33.2 0.8 0
33.6 0.8 0
34 0.8 0
34.4 0.8 0
34.8 0.8 0
35.2 0.8 0
35.6 0.8 0
36 0.8 0
36.4 0.8 0
36.8 0.8 0
37.2 0.8 0
37.6 0.8 0
38 0.8 0
38.4 0.8 0
38.8 0.8 0
39.2 0.8 0
39.6 0.8 0
40 0.8 0
40.4 0.8 0
0 0.9 0
0.4 0.9 0
0.8 0.9 0
1.2 0.9 0
1.6 0.9 0
2 0.9 0
2.4 0.9 0
2.8 0.9 0
3.2 0.9 0
3.6 0.9 0
4 0.9 0
4.4 0.9 0
4.8 0.9 0
5.2 0.9 0
5.6 0.9 0
6 0.9 0
6.4 0.9 0
6.8 0.9 0
7.2 0.9 0
7.6 0.9 0
8 0.9 0
8.4 0.9 0
8.8 0.9 0
9.2 0.9 0
9.6 0.9 0
10 0.9 0
10.4 0.9 0
10.8 0.9 0
11.2 0.9 0
11.6 0.9 0
12 0.9 0
12.4 0.9 0
12.8 0.9 0
13.2 0.9 0
13.6 0.9 0
14 0.9 0
14.4 0.9 0
14.8 0.9 0
15.2 0.9 0
15.6 0.9 0
16 0.9 0
16.4 0.9 0
16.8 0.9 0
17.2 0.9 0
17.6 0.9 0
18 0.9 0
18.4 0.9 0
18.8 0.9 0
19.2 0.9 0
19.6 0.9 0
20 0.9 0
20.4 0.9 0
20.8 0.9 0
21.2 0.9 0
21.6 0.9 0
22 0.9 0
22.4 0.9 0
22.8 0.9 0
23.2 0.9 0
23.6 0.9 0
24 0.9 0
24.4 0.9 0
24.8 0.9 0
25.2 0.9 0
25.6 0.9 0
26 0.9 0
26.4 0.9 0
26.8 0.9 0
27.2 0.9 0
27.6 0.9 0
28 0.9 0
28.4 0.9 0
28.8 0.9 0
29.2 0.9 0
29.6 0.9 0
30 0.9 0
30.4 0.9 0
30.8 0.9 0
31.2 0.9 0
31.6 0.9 0
32 0.9 0
32.4 0.9 0
32.8 0.9 0
33.2 0.9 0
33.6 0.9 0
34 0.9 0
34.4 0.9 0
34.8 0.9 0
35.2 0.9 0
35.6 0.9 0
36 0.9 0
36.4 0.9 0
36.8 0.9 0
37.2 0.9 0
37.6 0.9 0
38 0.9 0
38.4 0.9 0
38.8 0.9 0
39.2 0.9 0
39.6 0.9 0
40 0.9 0
40.4 0.9 0
0 1 0
0.4 1 0
0.8 1 0
1.2 1 0
1.6 1 0
2 1 0
2.4 1 0
2.8 1 0
3.2 1 0
3.6 1 0
4 1 0
4.4 1 0
4.8 1 0
5.2 1 0
5.6 1 0
6 1 0
6.4 1 0
6.8 1 0
7.2 1 0
7.6 1 0
8 1 0
8.4 1 0
8.8 1 0
9.2 1 0
9.6 1 0
10 1 0
10.4 1 0
10.8 1 0
11.2 1 0
11.6 1 0
12 1 0
12.4 1 0
12.8 1 0
13.2 1 0
13.6 1 0
14 1 0
14.4 1 0
14.8 1 0
15.2 1 0
15.6 1 0
16 1 0
16.4 1 0
16.8 1 0
17.2 1 0
17.6 1 0
18 1 0
18.4 1 0
18.8 1 0
19.2 1 0
19.6 1 0
20 1 0
20.4 1 0
20.8 1 0
21.2 1 0
21.6 1 0
22 1 0
22.4 1 0
22.8 1 0
23.2 1 0
23.6 1 0
24 1 0
24.4 1 0
24.8 1 0
25.2 1 0
25.6 1 0
26 1 0
26.4 1 0
26.8 1 0
27.2 1 0
27.6 1 0
28 1 0
28.4 1 0
28.8 1 0
29.2 1 0
29.6 1 0
30 1 0
30.4 1 0
30.8 1 0
31.2 1 0
31.6 1 0
32 1 0
32.4 1 0
32.8 1 0
33.2 1 0
33.6 1 0
34 1 0
34.4 1 0
34.8 1 0
35.2 1 0
35.6 1 0
36 1 0
36.4 1 0
36.8 1 0
37.2 1 0
37.6 1 0
38 1 0
38.4 1 0
38.8 1 0
39.2 1 0
39.6 1 0
40 1 0
40.4 1 0
0 1.1 0
0.4 1.1 0
0.8 1.1 0
1.2 1.1 0
1.6 1.1 0
2 1.1 0
2.4 1.1 0
2.8 1.1 0
3.2 1.1 0
3.6 1.1 0
4 1.1 0
4.4 1.1 0
4.8 1.1 0
5.2 1.1 0
5.6 1.1 0
6 1.1 0
6.4 1.1 0
6.8 1.1 0
7.2 1.1 0
7.6 1.1 0
8 1.1 0
8.4 1.1 0
8.8 1.1 0
9.2 1.1 0
9.6 1.1 0
10 1.1 0
10.4 1.1 0
10.8 1.1 0
11.2 1.1 0
11.6 1.1 0
12 1.1 0
12.4 1.1 0
12.8 1.1 0
13.2 1.1 0
13.6 1.1 0
14 1.1 0
14.4 1.1 0
14.8 1.1 0
15.2 1.1 0
15.6 1.1 0
16 1.1 0
16.4 1.1 0
16.8 1.1 0
17.2 1.1 0
17.6 1.1 0
18 1.1 0
18.4 1.1 0
18.8 1.1 0
19.2 1.1 0
19.6 1.1 0
20 1.1 0
20.4 1.1 0
20.8 1.1 0
21.2 1.1 0
21.6 1.1 0
22 1.1 0
22.4 1.1 0
22.8 1.1 0
23.2 1.1 0
23.6 1.1 0
24 1.1 0
24.4 1.1 0
24.8 1.1 0
25.2 1.1 0
25.6 1.1 0
26 1.1 0
26.4 1.1 0
26.8 1.1 0
27.2 1.1 0
27.6 1.1 0
28 1.1 0
28.4 1.1 0
28.8 1.1 0
29.2 1.1 0
29.6 1.1 0
30 1.1 0
30.4 1.1 0
30.8 1.1 0
31.2 1.1 0
31.6 1.1 0
32 1.1 0
32.4 1.1 0
32.8 1.1 0
33.2 1.1 0
33.6 1.1 0
34 1.1 0
34.4 1.1 0
34.8 1.1 0
35.2 1.1 0
35.6 1.1 0
36 1.1 0
36.4 1.1 0
36.8 1.1 0
37.2 1.1 0
37.6 1.1 0
38 1.1 0
38.4 1.1 0
38.8 1.1 0
39.2 1.1 0
39.6 1.1 0
40 1.1 0
40.4 1.1 0

POINT_DATA 1224

SCALARS phi double
LOOKUP_TABLE default
0.999992
1.00001
0.999997
0.999094
0.999027
0.998912
0.986229
0.946119
0.874172
0.777295
0.667287
0.555183
0.448907
0.353216
0.270464
0.201375
0.145604
0.102094
0.0693289
0.0455457
0.028924
0.0177475
0.0105193
0.00602303
0.00333201
0.00178159
0.000921113
0.000460732
0.000223082
0.000104623
4.75559e-05
2.09642e-05
8.96862e-06
3.72581e-06
1.50396e-06
5.90248e-07
2.2536e-07
8.37559e-08
3.03174e-08
1.06941e-08
3.67791e-09
1.23391e-09
4.04018e-10
1.2917e-10
4.03427e-11
1.2314e-11
3.67495e-12
1.07274e-12
3.06412e-13
8.56735e-14
2.34572e-14
6.29145e-15
1.65355e-15
4.26008e-16
1.0762e-16
2.66672e-17
6.48335e-18
1.54698e-18
3.6237e-19
8.33532e-20
1.88325e-20
4.18039e-21
9.11923e-22
1.95539e-22
4.12236e-23
8.54653e-24
1.74285e-24
3.49664e-25
6.90315e-26
1.34134e-26
2.56571e-27
4.83211e-28
8.962e-29
1.63716e-29
2.94623e-30
5.22407e-31
9.12826e-32
1.57207e-32
2.66889e-33
4.46713e-34
7.37278e-35
1.20005e-35
1.92662e-36
3.05128e-37
4.76774e-38
7.35099e-39
1.1185e-39
1.67974e-40
2.49008e-41
3.64419e-42
5.2657e-43
7.51328e-44
1.05869e-44
1.4734e-45
2.02551e-46
2.75075e-47
3.69077e-48
4.89306e-49
6.41018e-50
8.3016e-51
1.02987e-51
1.02987e-51
0.999992
1.00001
0.999997
0.999094
0.999027
0.998912
0.986229
0.946119
0.874172
0.777295
0.667287
0.555183
0.448907
0.353216
0.270464
0.201375
0.145604
0.102094
0.0693289
0.0455457
0.028924
0.0177475
0.0105193
0.00602303
0.00333201
0.00178159
0.000921113
0.000460732
0.000223082
0.000104623
4.75559e-05
2.09642e-05
8.96862e-06
3.72581e-06
1.50396e-06
5.90248e-07
2.2536e-07
8.37559e-08
3.03174e-08
1.06941e-08
3.67791e-09
1.23391e-09
4.04018e-10
1.2917e-10
4.03427e-11
1.2314e-11
3.67495e-12
1.07274e-12
3.06412e-13
8.56735e-14
2.34572e-14
6.29145e-15
1.65355e-15
4.26008e-16
1.0762e-16
2.66672e-17
6.48335e-18
1.54698e-18
3.6237e-19
8.33532e-20
1.88325e-20
4.18039e-21
9.11923e-22
1.95539e-22
4.12236e-23
8.54653e-24
1.74285e-24
3.49664e-25
6.90315e-26
1.34134e-26
2.56571e-27
4.83211e-28
8.962e-29
1.63716e-29
2.94623e-30
5.22407e-31
9.12826e-32
1.57207e-32
2.66889e-33
4.46713e-34
7.37278e-35
1.20005e-35
1.92662e-36
3.05128e-37
4.76774e-38
7.35099e-39
1.1185e-39
1.67974e-40
2.49008e-41
3.64419e-42
5.2657e-43
7.51328e-44
1.05869e-44
1.4734e-45
2.02551e-46
2.75075e-47
3.69077e-48
4.89306e-49
6.41018e-50
8.3016e-51
1.02987e-51
1.02987e-51
0.999992
1.00001
0.999605
0.997923
0.995364
0.99259
0.985834
0.967083
0.929345
0.870706
0.794354
0.706203
0.612516
0.518572
0.42835
0.344719
0.269719
0.20471
0.150382
0.10673
0.0730823
0.0482366
0.0306741
0.0187909
0.011091
0.00630973
0.00346173
0.00183272
0.000936965
0.000462915
0.000221188
0.000102292
4.58221e-05
1.98971e-05
8.38118e-06
3.42717e-06
1.36139e-06
5.25697e-07
1.9746e-07
7.21907e-08
2.57041e-08
8.91852e-09
3.01711e-09
9.95698e-10
3.20718e-10
1.00877e-10
3.0998e-11
9.30992e-12
2.73412e-12
7.85468e-13
2.20827e-13
6.07796e-14
1.63834e-14
4.32661e-15
1.11979e-15
2.84131e-16
7.07014e-17
1.72585e-17
4.13399e-18
9.71975e-19
2.24378e-19
5.08702e-20
1.13296e-20
2.47941e-21
5.33293e-22
1.12765e-22
2.34459e-23
4.79454e-24
9.64507e-25
1.90912e-25
3.71895e-26
7.13099e-27
1.34619e-27
2.50249e-28
4.58168e-29
8.26305e-30
1.46823e-30
2.57074e-31
4.43612e-32
7.54569e-33
1.26535e-33
2.09221e-34
3.4115e-35
5.48648e-36
8.70383e-37
1.36224e-37
2.1037e-38
3.20593e-39
4.82192e-40
7.15873e-41
1.04919e-41
1.51819e-42
2.16921e-43
3.06075e-44
4.26535e-45
5.87123e-46
7.98353e-47
1.07251e-47
1.42358e-48
1.86774e-49
2.34243e-50
2.34243e-50
1.00047
0.999529
0.99539
0.988403
0.979082
0.968555
0.956902
0.942074
0.920656
0.889588
0.847362
0.794162
0.731321
0.660682
0.584288
0.504398
0.423641
0.345016
0.271627
0.206215
0.150693
0.105875
0.071476
0.0463604
0.0288972
0.017318
0.00998539
0.00554365
0.00296594
0.00153056
0.000762519
0.000367078
0.000170906
7.70231e-05
3.36292e-05
1.42362e-05
5.84781e-06
2.33258e-06
9.04139e-07
3.40791e-07
1.24991e-07
4.46355e-08
1.55294e-08
5.26681e-09
1.74221e-09
5.62396e-10
1.77251e-10
5.45699e-11
1.64185e-11
4.82975e-12
1.38966e-12
3.91261e-13
1.07837e-13
2.91055e-14
7.69568e-15
1.99405e-15
5.06512e-16
1.26167e-16
3.0828e-17
7.39119e-18
1.73933e-18
4.01858e-19
9.11805e-20
2.03229e-20
4.45075e-21
9.5797e-22
2.02697e-22
4.21714e-23
8.62904e-24
1.7369e-24
3.43991e-25
6.70451e-26
1.28624e-26
2.42939e-27
4.51826e-28
8.27608e-29
1.49326e-29
2.65446e-30
4.64967e-31
8.02681e-32
1.36587e-32
2.29132e-33
3.79e-34
6.18208e-35
9.94565e-36
1.57832e-36
2.47105e-37
3.81723e-38
5.81906e-39
8.75488e-40
1.30015e-40
1.90606e-41
2.75885e-42
3.94295e-43
5.56498e-44
7.75718e-45
1.06804e-45
1.45266e-46
1.95195e-47
2.59217e-48
3.28647e-49
3.28647e-49
1.00913
0.99087
0.963618
0.936337
0.910481
0.886765
0.865449
0.845948
0.826835
0.806239
0.782317
0.753522
0.718597
0.676486
0.626382
0.568022
0.502139
0.430768
0.357176
0.285327
0.219089
0.161465
0.114129
0.0773584
0.0502952
0.0313833
0.0188087
0.0108366
0.00600787
0.0032083
0.00165193
0.00082093
0.000394128
0.000182977
8.22202e-05
3.57901e-05
1.51048e-05
6.18557e-06
2.45975e-06
9.5053e-07
3.57195e-07
1.30617e-07
4.65074e-08
1.61338e-08
5.45626e-09
1.79984e-09
5.79411e-10
1.82125e-10
5.59234e-11
1.67826e-11
4.92448e-12
1.41345e-12
3.97005e-13
1.09164e-13
2.93964e-14
7.75529e-15
2.00512e-15
5.08242e-16
1.26336e-16
3.08066e-17
7.37148e-18
1.73135e-18
3.9926e-19
9.04245e-20
2.01182e-20
4.39821e-21
9.45044e-22
1.99628e-22
4.14652e-23
8.47103e-24
1.70244e-24
3.36655e-25
6.5518e-26
1.25512e-26
2.36726e-27
4.39662e-28
8.04239e-29
1.44918e-29
2.57278e-30
4.5009e-31
7.7604e-32
1.31894e-32
2.20999e-33
3.65126e-34
5.94905e-35
9.5602e-36
1.51552e-36
2.37021e-37
3.65768e-38
5.57019e-39
8.37215e-40
1.24211e-40
1.81924e-41
2.63075e-42
3.75644e-43
5.29703e-44
7.37722e-45
1.01486e-45
1.37916e-46
1.85206e-47
2.37248e-48
2.37248e-48
1.10477
0.895235
0.791788
0.734426
0.698324
0.673515
0.655481
0.641749
0.630643
0.620801
0.610976
0.599897
0.586102
0.567814
0.543023
0.509879
0.467341
0.415806
0.357383
0.295606
0.234677
0.178525
0.130034
0.0906779
0.0605598
0.0387618
0.0237983
0.0140298
0.00795043
0.0043355
0.00227759
0.0011539
0.000564376
0.000266759
0.000121965
5.39915e-05
2.31615e-05
9.63668e-06
3.89182e-06
1.52678e-06
5.82249e-07
2.15999e-07
7.79996e-08
2.74347e-08
9.40446e-09
3.1437e-09
1.02532e-09
3.26446e-10
1.01511e-10
3.08441e-11
9.16189e-12
2.66159e-12
7.5652e-13
2.10474e-13
5.7338e-14
1.53007e-14
4.00095e-15
1.02552e-15
2.57747e-16
6.35414e-17
1.53696e-17
3.6487e-18
8.50376e-19
1.94625e-19
4.37538e-20
9.66443e-21
2.09791e-21
4.47665e-22
9.39237e-23
1.93799e-23
3.9335e-24
7.85504e-25
1.54365e-25
2.98586e-26
5.68581e-27
1.06611e-27
1.96867e-28
3.58087e-29
6.41684e-30
1.13304e-30
1.97165e-31
3.38179e-32
5.71825e-33
9.53332e-34
1.56731e-34
2.5413e-35
4.06453e-36
6.41324e-37
9.98422e-38
1.53383e-38
2.32553e-39
3.4802e-40
5.14132e-41
7.49868e-42
1.0799e-42
1.53577e-43
2.15702e-44
2.99238e-45
4.1007e-46
5.55279e-47
7.16909e-48
7.16909e-48
-0.104763
0.104763
0.208223
0.265587
0.301651
0.326428
0.344507
0.358319
0.369263
0.378158
0.385416
0.391035
0.394461
0.394456
0.38916
0.376496
0.354863
0.323871
0.284762
0.240295
0.194125
0.149933
0.110659
0.0780599
0.0526605
0.0340058
0.0210427
0.0124921
0.00712334
0.00390633
0.00206256
0.00104977
0.000515608
0.000244645
0.00011225
4.98527e-05
2.14505e-05
8.9497e-06
3.62377e-06
1.42506e-06
5.4469e-07
2.02494e-07
7.32682e-08
2.58187e-08
8.86609e-09
2.96866e-09
9.69748e-10
3.09211e-10
9.62872e-11
2.92959e-11
8.71303e-12
2.53424e-12
7.21151e-13
2.00853e-13
5.4774e-14
1.46311e-14
3.82948e-15
9.82457e-16
2.4714e-16
6.0977e-17
1.47611e-17
3.50692e-18
8.17932e-19
1.87331e-19
4.21426e-20
9.31459e-21
2.02323e-21
4.31989e-22
9.06871e-23
1.87225e-23
3.80211e-24
7.59658e-25
1.4936e-25
2.89044e-26
5.50665e-27
1.03297e-27
1.90831e-28
3.47252e-29
6.22518e-30
1.09962e-30
1.91422e-31
3.28447e-32
5.55563e-33
9.26534e-34
1.52375e-34
2.47145e-35
3.95402e-36
6.24071e-37
9.71839e-38
1.49341e-38
2.26485e-39
3.39026e-40
5.00969e-41
7.30846e-42
1.05276e-42
1.4975e-43
2.10373e-44
2.91906e-45
4.00105e-46
5.41892e-47
6.99754e-48
6.99754e-48
-0.00912604
0.00912604
0.0364071
0.0636576
0.0894292
0.113209
0.134793
0.154239
0.171768
0.187669
0.202188
0.215354
0.226748
0.235329
0.239498
0.237478
0.227934
0.21057
0.186429
0.157728
0.127319
0.0979981
0.0719374
0.0503967
0.0337285
0.0215903
0.0132359
0.00778141
0.00439288
0.00238446
0.00124602
0.000627595
0.000305032
0.000143218
6.50257e-05
2.8578e-05
1.21685e-05
5.02443e-06
2.01343e-06
7.83662e-07
2.96475e-07
1.09099e-07
3.90767e-08
1.36319e-08
4.6345e-09
1.5364e-09
4.96938e-10
1.56901e-10
4.83826e-11
1.45782e-11
4.29406e-12
1.23701e-12
3.4866e-13
9.61897e-14
2.59849e-14
6.87612e-15
1.78299e-15
4.53197e-16
1.12954e-16
2.76141e-17
6.62384e-18
1.55943e-18
3.60432e-19
8.18094e-20
1.82398e-20
3.99564e-21
8.60221e-22
1.82053e-22
3.78833e-23
7.75286e-24
1.56075e-24
3.0914e-25
6.02584e-26
1.15613e-26
2.18377e-27
4.06164e-28
7.43992e-29
1.34241e-29
2.38633e-30
4.17998e-31
7.21586e-32
1.22784e-32
2.0597e-33
3.40674e-34
5.55663e-35
8.93892e-36
1.41847e-36
2.22062e-37
3.4301e-38
5.22848e-39
7.86565e-40
1.16799e-40
1.71214e-41
2.47792e-42
3.54107e-43
4.99723e-44
6.96499e-45
9.5886e-46
1.30399e-46
1.75235e-47
2.24624e-48
2.24624e-48
-0.000466963
0.000466963
0.00465747
0.0115194
0.020737
0.0317583
0.0439627
0.0568363
0.0700134
0.0832364
0.0962514
0.108646
0.119685
0.128263
0.133061
0.132912
0.127228
0.116294
0.101272
0.0839248
0.0661711
0.0496623
0.0355113
0.024222
0.0157815
0.00983573
0.00587237
0.00336349
0.00185071
0.00097957
0.000499384
0.000245503
0.00011652
5.34481e-05
2.3719e-05
1.01932e-05
4.24589e-06
1.71572e-06
6.73131e-07
2.56601e-07
9.51139e-08
3.43048e-08
1.2047e-08
4.12177e-09
1.37477e-09
4.47266e-10
1.42011e-10
4.40277e-11
1.33349e-11
3.94742e-12
1.14261e-12
3.2354e-13
8.96567e-14
2.4324e-14
6.46322e-15
1.68261e-15
4.29329e-16
1.07403e-16
2.63515e-17
6.34292e-18
1.49831e-18
3.4743e-19
7.91061e-20
1.76908e-20
3.88679e-21
8.39179e-22
1.78091e-22
3.71584e-23
7.62431e-24
1.53875e-24
3.0553e-25
5.96964e-26
1.148e-26
2.17328e-27
4.05094e-28
7.43606e-29
1.34448e-29
2.3948e-30
4.203e-31
7.26938e-32
1.23923e-32
2.08255e-33
3.45057e-34
5.63772e-35
9.08443e-36
1.44389e-36
2.26399e-37
3.50248e-38
5.34681e-39
8.05543e-40
1.19787e-40
1.75839e-41
2.54832e-42
3.6465e-43
5.15268e-44
7.19073e-45
9.91157e-46
1.34955e-46
1.81533e-47
2.41321e-48
3.06255e-49
3.06255e-49
9.62274e-06
-9.62274e-06
0.000456178
0.00182932
0.00456237
0.00890994
0.0148863
0.0223185
0.0308855
0.0401218
0.0494027
0.0579388
0.0648252
0.0691738
0.0703159
0.068001
0.0625031
0.0545771
0.0452766
0.0357053
0.0267909
0.0191492
0.0130559
0.0085032
0.00529803
0.00316254
0.00181121
0.000996573
0.000527512
0.000268958
0.000132247
6.27802e-05
2.88048e-05
1.27864e-05
5.49659e-06
2.29028e-06
9.25779e-07
3.6333e-07
1.38549e-07
5.13726e-08
1.85346e-08
6.51098e-09
2.22838e-09
7.43483e-10
2.41956e-10
7.68458e-11
2.38312e-11
7.21982e-12
2.1378e-12
6.18957e-13
1.75306e-13
4.85907e-14
1.31857e-14
3.50437e-15
9.125e-16
2.32876e-16
5.82685e-17
1.42988e-17
3.44236e-18
8.13277e-19
1.88613e-19
4.29513e-20
9.60667e-21
2.11093e-21
4.55817e-22
9.6745e-23
2.01879e-23
4.14266e-24
8.36158e-25
1.6604e-25
3.24448e-26
6.2398e-27
1.18135e-27
2.20215e-28
4.04262e-29
7.30972e-30
1.30208e-30
2.28533e-31
3.95282e-32
6.73876e-33
1.1325e-33
1.8765e-34
3.06601e-35
4.94059e-36
7.85281e-37
1.23133e-37
1.90494e-38
2.90807e-39
4.3813e-40
6.51522e-41
9.5639e-42
1.38603e-42
1.98333e-43
2.80254e-44
3.911e-45
5.39081e-46
7.33998e-47
9.87325e-48
1.31215e-48
1.72363e-49
2.16417e-50
2.16417e-50
5.90907e-06
-5.90907e-06
4.4107e-05
0.000441009
0.00169507
0.00430368
0.00850842
0.0141975
0.020909
0.0278995
0.0342741
0.0391616
0.0418958
0.0421558
0.0400233
0.0359408
0.030587
0.0247123
0.0189852
0.0138905
0.0096937
0.00646221
0.00412132
0.00251813
0.0014761
0.00083124
0.000450268
0.000234899
0.000118157
5.73708e-05
2.69171e-05
1.22153e-05
5.36701e-06
2.28506e-06
9.43561e-07
3.78181e-07
1.47238e-07
5.57243e-08
2.05152e-08
7.35187e-09
2.56616e-09
8.72955e-10
2.89581e-10
9.37248e-11
2.96122e-11
9.13761e-12
2.75517e-12
8.12109e-13
2.3411e-13
6.6031e-14
1.82293e-14
4.92784e-15
1.30487e-15
3.38575e-16
8.61133e-17
2.14761e-17
5.25353e-18
1.26092e-18
2.97027e-19
6.86906e-20
1.55996e-20
3.47985e-21
7.62693e-22
1.64282e-22
3.47844e-23
7.24165e-24
1.48267e-24
2.9861e-25
5.91707e-26
1.15383e-26
2.21461e-27
4.18465e-28
7.78586e-29
1.42666e-29
2.57502e-30
4.57889e-31
8.02292e-32
1.38538e-32
2.35799e-33
3.95654e-34
6.54573e-35
1.0679e-35
1.71831e-36
2.72727e-37
4.2704e-38
6.59757e-39
1.00584e-39
1.51343e-40
2.24767e-41
3.29532e-42
4.76987e-43
6.81726e-44
9.62183e-45
1.34121e-45
1.84661e-46
2.51154e-47
3.37468e-48
4.4803e-49
5.87744e-50
7.62176e-51
9.4671e-52
9.4671e-52
5.90907e-06
-5.90907e-06
4.4107e-05
0.000441009
0.00169507
0.00430368
0.00850842
0.0141975
0.020909
0.0278995
0.0342741
0.0391616
0.0418958
0.0421558
0.0400233
0.0359408
0.030587
0.0247123
0.0189852
0.0138905
0.0096937
0.00646221
0.00412132
0.00251813
0.0014761
0.00083124
0.000450268
0.000234899
0.000118157
5.73708e-05
2.69171e-05
1.22153e-05
5.36701e-06
2.28506e-06
9.43561e-07
3.78181e-07
1.47238e-07
5.57243e-08
2.05152e-08
7.35187e-09
2.56616e-09
8.72955e-10
2.89581e-10
9.37248e-11
2.96122e-11
9.13761e-12
2.75517e-12
8.12109e-13
2.3411e-13
6.6031e-14
1.82293e-14
4.92784e-15
1.30487e-15
3.38575e-16
8.61133e-17
2.14761e-17
5.25353e-18
1.26092e-18
2.97027e-19
6.86906e-20
1.55996e-20
3.47985e-21
7.62693e-22
1.64282e-22
3.47844e-23
7.24165e-24
1.48267e-24
2.9861e-25
5.91707e-26
1.15383e-26
2.21461e-27
4.18465e-28
7.78586e-29
1.42666e-29
2.57502e-30
4.57889e-31
8.02292e-32
1.38538e-32
2.35799e-33
3.95654e-34
6.54573e-35
1.0679e-35
1.71831e-36
2.72727e-37
4.2704e-38
6.59757e-39
1.00584e-39
1.51343e-40
2.24767e-41
3.29532e-42
4.76987e-43
6.81726e-44
9.62183e-45
1.34121e-45
1.84661e-46
2.51154e-47
3.37468e-48
4.4803e-49
5.87744e-50
7.62176e-51
9.4671e-52
9.4671e-52
