# vtk DataFile Version 2.0
FlowField
ASCII
DATASET STRUCTURED_GRID
DIMENSIONS 101 11 1 
POINTS 1111 double
0 0 0
0.3 0 0
0.6 0 0
0.9 0 0
1.2 0 0
1.5 0 0
1.8 0 0
2.1 0 0
2.4 0 0
2.7 0 0
3 0 0
3.3 0 0
3.6 0 0
3.9 0 0
4.2 0 0
4.5 0 0
4.8 0 0
5.1 0 0
5.4 0 0
5.7 0 0
6 0 0
6.3 0 0
6.6 0 0
6.9 0 0
7.2 0 0
7.5 0 0
7.8 0 0
8.1 0 0
8.4 0 0
8.7 0 0
9 0 0
9.3 0 0
9.6 0 0
9.9 0 0
10.2 0 0
10.5 0 0
10.8 0 0
11.1 0 0
11.4 0 0
11.7 0 0
12 0 0
12.3 0 0
12.6 0 0
12.9 0 0
13.2 0 0
13.5 0 0
13.8 0 0
14.1 0 0
14.4 0 0
14.7 0 0
15 0 0
15.3 0 0
15.6 0 0
15.9 0 0
16.2 0 0
16.5 0 0
16.8 0 0
17.1 0 0
17.4 0 0
17.7 0 0
18 0 0
18.3 0 0
18.6 0 0
18.9 0 0
19.2 0 0
19.5 0 0
19.8 0 0
20.1 0 0
20.4 0 0
20.7 0 0
21 0 0
21.3 0 0
21.6 0 0
21.9 0 0
22.2 0 0
22.5 0 0
22.8 0 0
23.1 0 0
23.4 0 0
23.7 0 0
24 0 0
24.3 0 0
24.6 0 0
24.9 0 0
25.2 0 0
25.5 0 0
25.8 0 0
26.1 0 0
26.4 0 0
26.7 0 0
27 0 0
27.3 0 0
27.6 0 0
27.9 0 0
28.2 0 0
28.5 0 0
28.8 0 0
29.1 0 0
29.4 0 0
29.7 0 0
30 0 0
0 0.1 0
0.3 0.1 0
0.6 0.1 0
0.9 0.1 0
1.2 0.1 0
1.5 0.1 0
1.8 0.1 0
2.1 0.1 0
2.4 0.1 0
2.7 0.1 0
3 0.1 0
3.3 0.1 0
3.6 0.1 0
3.9 0.1 0
4.2 0.1 0
4.5 0.1 0
4.8 0.1 0
5.1 0.1 0
5.4 0.1 0
5.7 0.1 0
6 0.1 0
6.3 0.1 0
6.6 0.1 0
6.9 0.1 0
7.2 0.1 0
7.5 0.1 0
7.8 0.1 0
8.1 0.1 0
8.4 0.1 0
8.7 0.1 0
9 0.1 0
9.3 0.1 0
9.6 0.1 0
9.9 0.1 0
10.2 0.1 0
10.5 0.1 0
10.8 0.1 0
11.1 0.1 0
11.4 0.1 0
11.7 0.1 0
12 0.1 0
12.3 0.1 0
12.6 0.1 0
12.9 0.1 0
13.2 0.1 0
13.5 0.1 0
13.8 0.1 0
14.1 0.1 0
14.4 0.1 0
14.7 0.1 0
15 0.1 0
15.3 0.1 0
15.6 0.1 0
15.9 0.1 0
16.2 0.1 0
16.5 0.1 0
16.8 0.1 0
17.1 0.1 0
17.4 0.1 0
17.7 0.1 0
18 0.1 0
18.3 0.1 0
18.6 0.1 0
18.9 0.1 0
19.2 0.1 0
19.5 0.1 0
19.8 0.1 0
20.1 0.1 0
20.4 0.1 0
20.7 0.1 0
21 0.1 0
21.3 0.1 0
21.6 0.1 0
21.9 0.1 0
22.2 0.1 0
22.5 0.1 0
22.8 0.1 0
23.1 0.1 0
23.4 0.1 0
23.7 0.1 0
24 0.1 0
24.3 0.1 0
24.6 0.1 0
24.9 0.1 0
25.2 0.1 0
25.5 0.1 0
25.8 0.1 0
26.1 0.1 0
26.4 0.1 0
26.7 0.1 0
27 0.1 0
27.3 0.1 0
27.6 0.1 0
27.9 0.1 0
28.2 0.1 0
28.5 0.1 0
28.8 0.1 0
29.1 0.1 0
29.4 0.1 0
29.7 0.1 0
30 0.1 0
0 0.2 0
0.3 0.2 0
0.6 0.2 0
0.9 0.2 0
1.2 0.2 0
1.5 0.2 0
1.8 0.2 0
2.1 0.2 0
2.4 0.2 0
2.7 0.2 0
3 0.2 0
3.3 0.2 0
3.6 0.2 0
3.9 0.2 0
4.2 0.2 0
4.5 0.2 0
4.8 0.2 0
5.1 0.2 0
5.4 0.2 0
5.7 0.2 0
6 0.2 0
6.3 0.2 0
6.6 0.2 0
6.9 0.2 0
7.2 0.2 0
7.5 0.2 0
7.8 0.2 0
8.1 0.2 0
8.4 0.2 0
8.7 0.2 0
9 0.2 0
9.3 0.2 0
9.6 0.2 0
9.9 0.2 0
10.2 0.2 0
10.5 0.2 0
10.8 0.2 0
11.1 0.2 0
11.4 0.2 0
11.7 0.2 0
12 0.2 0
12.3 0.2 0
12.6 0.2 0
12.9 0.2 0
13.2 0.2 0
13.5 0.2 0
13.8 0.2 0
14.1 0.2 0
14.4 0.2 0
14.7 0.2 0
15 0.2 0
15.3 0.2 0
15.6 0.2 0
15.9 0.2 0
16.2 0.2 0
16.5 0.2 0
16.8 0.2 0
17.1 0.2 0
17.4 0.2 0
17.7 0.2 0
18 0.2 0
18.3 0.2 0
18.6 0.2 0
18.9 0.2 0
19.2 0.2 0
19.5 0.2 0
19.8 0.2 0
20.1 0.2 0
20.4 0.2 0
20.7 0.2 0
21 0.2 0
21.3 0.2 0
21.6 0.2 0
21.9 0.2 0
22.2 0.2 0
22.5 0.2 0
22.8 0.2 0
23.1 0.2 0
23.4 0.2 0
23.7 0.2 0
24 0.2 0
24.3 0.2 0
24.6 0.2 0
24.9 0.2 0
25.2 0.2 0
25.5 0.2 0
25.8 0.2 0
26.1 0.2 0
26.4 0.2 0
26.7 0.2 0
27 0.2 0
27.3 0.2 0
27.6 0.2 0
27.9 0.2 0
28.2 0.2 0
28.5 0.2 0
28.8 0.2 0
29.1 0.2 0
29.4 0.2 0
29.7 0.2 0
30 0.2 0
0 0.3 0
0.3 0.3 0
0.6 0.3 0
0.9 0.3 0
1.2 0.3 0
1.5 0.3 0
1.8 0.3 0
2.1 0.3 0
2.4 0.3 0
2.7 0.3 0
3 0.3 0
3.3 0.3 0
3.6 0.3 0
3.9 0.3 0
4.2 0.3 0
4.5 0.3 0
4.8 0.3 0
5.1 0.3 0
5.4 0.3 0
5.7 0.3 0
6 0.3 0
6.3 0.3 0
6.6 0.3 0
6.9 0.3 0
7.2 0.3 0
7.5 0.3 0
7.8 0.3 0
8.1 0.3 0
8.4 0.3 0
8.7 0.3 0
9 0.3 0
9.3 0.3 0
9.6 0.3 0
9.9 0.3 0
10.2 0.3 0
10.5 0.3 0
10.8 0.3 0
11.1 0.3 0
11.4 0.3 0
11.7 0.3 0
12 0.3 0
12.3 0.3 0
12.6 0.3 0
12.9 0.3 0
13.2 0.3 0
13.5 0.3 0
13.8 0.3 0
14.1 0.3 0
14.4 0.3 0
14.7 0.3 0
15 0.3 0
15.3 0.3 0
15.6 0.3 0
15.9 0.3 0
16.2 0.3 0
16.5 0.3 0
16.8 0.3 0
17.1 0.3 0
17.4 0.3 0
17.7 0.3 0
18 0.3 0
18.3 0.3 0
18.6 0.3 0
18.9 0.3 0
19.2 0.3 0
19.5 0.3 0
19.8 0.3 0
20.1 0.3 0
20.4 0.3 0
20.7 0.3 0
21 0.3 0
21.3 0.3 0
21.6 0.3 0
21.9 0.3 0
22.2 0.3 0
22.5 0.3 0
22.8 0.3 0
23.1 0.3 0
23.4 0.3 0
23.7 0.3 0
24 0.3 0
24.3 0.3 0
24.6 0.3 0
24.9 0.3 0
25.2 0.3 0
25.5 0.3 0
25.8 0.3 0
26.1 0.3 0
26.4 0.3 0
26.7 0.3 0
27 0.3 0
27.3 0.3 0
27.6 0.3 0
27.9 0.3 0
28.2 0.3 0
28.5 0.3 0
28.8 0.3 0
29.1 0.3 0
29.4 0.3 0
29.7 0.3 0
30 0.3 0
0 0.4 0
0.3 0.4 0
0.6 0.4 0
0.9 0.4 0
1.2 0.4 0
1.5 0.4 0
1.8 0.4 0
2.1 0.4 0
2.4 0.4 0
2.7 0.4 0
3 0.4 0
3.3 0.4 0
3.6 0.4 0
3.9 0.4 0
4.2 0.4 0
4.5 0.4 0
4.8 0.4 0
5.1 0.4 0
5.4 0.4 0
5.7 0.4 0
6 0.4 0
6.3 0.4 0
6.6 0.4 0
6.9 0.4 0
7.2 0.4 0
7.5 0.4 0
7.8 0.4 0
8.1 0.4 0
8.4 0.4 0
8.7 0.4 0
9 0.4 0
9.3 0.4 0
9.6 0.4 0
9.9 0.4 0
10.2 0.4 0
10.5 0.4 0
10.8 0.4 0
11.1 0.4 0
11.4 0.4 0
11.7 0.4 0
12 0.4 0
12.3 0.4 0
12.6 0.4 0
12.9 0.4 0
13.2 0.4 0
13.5 0.4 0
13.8 0.4 0
14.1 0.4 0
14.4 0.4 0
14.7 0.4 0
15 0.4 0
15.3 0.4 0
15.6 0.4 0
15.9 0.4 0
16.2 0.4 0
16.5 0.4 0
16.8 0.4 0
17.1 0.4 0
17.4 0.4 0
17.7 0.4 0
18 0.4 0
18.3 0.4 0
18.6 0.4 0
18.9 0.4 0
19.2 0.4 0
19.5 0.4 0
19.8 0.4 0
20.1 0.4 0
20.4 0.4 0
20.7 0.4 0
21 0.4 0
21.3 0.4 0
21.6 0.4 0
21.9 0.4 0
22.2 0.4 0
22.5 0.4 0
22.8 0.4 0
23.1 0.4 0
23.4 0.4 0
23.7 0.4 0
24 0.4 0
24.3 0.4 0
24.6 0.4 0
24.9 0.4 0
25.2 0.4 0
25.5 0.4 0
25.8 0.4 0
26.1 0.4 0
26.4 0.4 0
26.7 0.4 0
27 0.4 0
27.3 0.4 0
27.6 0.4 0
27.9 0.4 0
28.2 0.4 0
28.5 0.4 0
28.8 0.4 0
29.1 0.4 0
29.4 0.4 0
29.7 0.4 0
30 0.4 0
0 0.5 0
0.3 0.5 0
0.6 0.5 0
0.9 0.5 0
1.2 0.5 0
1.5 0.5 0
1.8 0.5 0
2.1 0.5 0
2.4 0.5 0
2.7 0.5 0
3 0.5 0
3.3 0.5 0
3.6 0.5 0
3.9 0.5 0
4.2 0.5 0
4.5 0.5 0
4.8 0.5 0
5.1 0.5 0
5.4 0.5 0
5.7 0.5 0
6 0.5 0
6.3 0.5 0
6.6 0.5 0
6.9 0.5 0
7.2 0.5 0
7.5 0.5 0
7.8 0.5 0
8.1 0.5 0
8.4 0.5 0
8.7 0.5 0
9 0.5 0
9.3 0.5 0
9.6 0.5 0
9.9 0.5 0
10.2 0.5 0
10.5 0.5 0
10.8 0.5 0
11.1 0.5 0
11.4 0.5 0
11.7 0.5 0
12 0.5 0
12.3 0.5 0
12.6 0.5 0
12.9 0.5 0
13.2 0.5 0
13.5 0.5 0
13.8 0.5 0
14.1 0.5 0
14.4 0.5 0
14.7 0.5 0
15 0.5 0
15.3 0.5 0
15.6 0.5 0
15.9 0.5 0
16.2 0.5 0
16.5 0.5 0
16.8 0.5 0
17.1 0.5 0
17.4 0.5 0
17.7 0.5 0
18 0.5 0
18.3 0.5 0
18.6 0.5 0
18.9 0.5 0
19.2 0.5 0
19.5 0.5 0
19.8 0.5 0
20.1 0.5 0
20.4 0.5 0
20.7 0.5 0
21 0.5 0
21.3 0.5 0
21.6 0.5 0
21.9 0.5 0
22.2 0.5 0
22.5 0.5 0
22.8 0.5 0
23.1 0.5 0
23.4 0.5 0
23.7 0.5 0
24 0.5 0
24.3 0.5 0
24.6 0.5 0
24.9 0.5 0
25.2 0.5 0
25.5 0.5 0
25.8 0.5 0
26.1 0.5 0
26.4 0.5 0
26.7 0.5 0
27 0.5 0
27.3 0.5 0
27.6 0.5 0
27.9 0.5 0
28.2 0.5 0
28.5 0.5 0
28.8 0.5 0
29.1 0.5 0
29.4 0.5 0
29.7 0.5 0
30 0.5 0
0 0.6 0
0.3 0.6 0
0.6 0.6 0
0.9 0.6 0
1.2 0.6 0
1.5 0.6 0
1.8 0.6 0
2.1 0.6 0
2.4 0.6 0
2.7 0.6 0
3 0.6 0
3.3 0.6 0
3.6 0.6 0
3.9 0.6 0
4.2 0.6 0
4.5 0.6 0
4.8 0.6 0
5.1 0.6 0
5.4 0.6 0
5.7 0.6 0
6 0.6 0
6.3 0.6 0
6.6 0.6 0
6.9 0.6 0
7.2 0.6 0
7.5 0.6 0
7.8 0.6 0
8.1 0.6 0
8.4 0.6 0
8.7 0.6 0
9 0.6 0
9.3 0.6 0
9.6 0.6 0
9.9 0.6 0
10.2 0.6 0
10.5 0.6 0
10.8 0.6 0
11.1 0.6 0
11.4 0.6 0
11.7 0.6 0
12 0.6 0
12.3 0.6 0
12.6 0.6 0
12.9 0.6 0
13.2 0.6 0
13.5 0.6 0
13.8 0.6 0
14.1 0.6 0
14.4 0.6 0
14.7 0.6 0
15 0.6 0
15.3 0.6 0
15.6 0.6 0
15.9 0.6 0
16.2 0.6 0
16.5 0.6 0
16.8 0.6 0
17.1 0.6 0
17.4 0.6 0
17.7 0.6 0
18 0.6 0
18.3 0.6 0
18.6 0.6 0
18.9 0.6 0
19.2 0.6 0
19.5 0.6 0
19.8 0.6 0
20.1 0.6 0
20.4 0.6 0
20.7 0.6 0
21 0.6 0
21.3 0.6 0
21.6 0.6 0
21.9 0.6 0
22.2 0.6 0
22.5 0.6 0
22.8 0.6 0
23.1 0.6 0
23.4 0.6 0
23.7 0.6 0
24 0.6 0
24.3 0.6 0
24.6 0.6 0
24.9 0.6 0
25.2 0.6 0
25.5 0.6 0
25.8 0.6 0
26.1 0.6 0
26.4 0.6 0
26.7 0.6 0
27 0.6 0
27.3 0.6 0
27.6 0.6 0
27.9 0.6 0
28.2 0.6 0
28.5 0.6 0
28.8 0.6 0
29.1 0.6 0
29.4 0.6 0
29.7 0.6 0
30 0.6 0
0 0.7 0
0.3 0.7 0
0.6 0.7 0
0.9 0.7 0
1.2 0.7 0
1.5 0.7 0
1.8 0.7 0
2.1 0.7 0
2.4 0.7 0
2.7 0.7 0
3 0.7 0
3.3 0.7 0
3.6 0.7 0
3.9 0.7 0
4.2 0.7 0
4.5 0.7 0
4.8 0.7 0
5.1 0.7 0
5.4 0.7 0
5.7 0.7 0
6 0.7 0
6.3 0.7 0
6.6 0.7 0
6.9 0.7 0
7.2 0.7 0
7.5 0.7 0
7.8 0.7 0
8.1 0.7 0
8.4 0.7 0
8.7 0.7 0
9 0.7 0
9.3 0.7 0
9.6 0.7 0
9.9 0.7 0
10.2 0.7 0
10.5 0.7 0
10.8 0.7 0
11.1 0.7 0
11.4 0.7 0
11.7 0.7 0
12 0.7 0
12.3 0.7 0
12.6 0.7 0
12.9 0.7 0
13.2 0.7 0
13.5 0.7 0
13.8 0.7 0
14.1 0.7 0
14.4 0.7 0
14.7 0.7 0
15 0.7 0
15.3 0.7 0
15.6 0.7 0
15.9 0.7 0
16.2 0.7 0
16.5 0.7 0
16.8 0.7 0
17.1 0.7 0
17.4 0.7 0
17.7 0.7 0
18 0.7 0
18.3 0.7 0
18.6 0.7 0
18.9 0.7 0
19.2 0.7 0
19.5 0.7 0
19.8 0.7 0
20.1 0.7 0
20.4 0.7 0
20.7 0.7 0
21 0.7 0
21.3 0.7 0
21.6 0.7 0
21.9 0.7 0
22.2 0.7 0
22.5 0.7 0
22.8 0.7 0
23.1 0.7 0
23.4 0.7 0
23.7 0.7 0
24 0.7 0
24.3 0.7 0
24.6 0.7 0
24.9 0.7 0
25.2 0.7 0
25.5 0.7 0
25.8 0.7 0
26.1 0.7 0
26.4 0.7 0
26.7 0.7 0
27 0.7 0
27.3 0.7 0
27.6 0.7 0
27.9 0.7 0
28.2 0.7 0
28.5 0.7 0
28.8 0.7 0
29.1 0.7 0
29.4 0.7 0
29.7 0.7 0
30 0.7 0
0 0.8 0
0.3 0.8 0
0.6 0.8 0
0.9 0.8 0
1.2 0.8 0
1.5 0.8 0
1.8 0.8 0
2.1 0.8 0
2.4 0.8 0
2.7 0.8 0
3 0.8 0
3.3 0.8 0
3.6 0.8 0
3.9 0.8 0
4.2 0.8 0
4.5 0.8 0
4.8 0.8 0
5.1 0.8 0
5.4 0.8 0
5.7 0.8 0
6 0.8 0
6.3 0.8 0
6.6 0.8 0
6.9 0.8 0
7.2 0.8 0
7.5 0.8 0
7.8 0.8 0
8.1 0.8 0
8.4 0.8 0
8.7 0.8 0
9 0.8 0
9.3 0.8 0
9.6 0.8 0
9.9 0.8 0
10.2 0.8 0
10.5 0.8 0
10.8 0.8 0
11.1 0.8 0
11.4 0.8 0
11.7 0.8 0
12 0.8 0
12.3 0.8 0
12.6 0.8 0
12.9 0.8 0
13.2 0.8 0
13.5 0.8 0
13.8 0.8 0
14.1 0.8 0
14.4 0.8 0
14.7 0.8 0
15 0.8 0
15.3 0.8 0
15.6 0.8 0
15.9 0.8 0
16.2 0.8 0
16.5 0.8 0
16.8 0.8 0
17.1 0.8 0
17.4 0.8 0
17.7 0.8 0
18 0.8 0
18.3 0.8 0
18.6 0.8 0
18.9 0.8 0
19.2 0.8 0
19.5 0.8 0
19.8 0.8 0
20.1 0.8 0
20.4 0.8 0
20.7 0.8 0
21 0.8 0
21.3 0.8 0
21.6 0.8 0
21.9 0.8 0
22.2 0.8 0
22.5 0.8 0
22.8 0.8 0
23.1 0.8 0
23.4 0.8 0
23.7 0.8 0
24 0.8 0
24.3 0.8 0
24.6 0.8 0
24.9 0.8 0
25.2 0.8 0
25.5 0.8 0
25.8 0.8 0
26.1 0.8 0
26.4 0.8 0
26.7 0.8 0
27 0.8 0
27.3 0.8 0
27.6 0.8 0
27.9 0.8 0
28.2 0.8 0
28.5 0.8 0
28.8 0.8 0
29.1 0.8 0
29.4 0.8 0
29.7 0.8 0
30 0.8 0
0 0.9 0
0.3 0.9 0
0.6 0.9 0
0.9 0.9 0
1.2 0.9 0
1.5 0.9 0
1.8 0.9 0
2.1 0.9 0
2.4 0.9 0
2.7 0.9 0
3 0.9 0
3.3 0.9 0
3.6 0.9 0
3.9 0.9 0
4.2 0.9 0
4.5 0.9 0
4.8 0.9 0
5.1 0.9 0
5.4 0.9 0
5.7 0.9 0
6 0.9 0
6.3 0.9 0
6.6 0.9 0
6.9 0.9 0
7.2 0.9 0
7.5 0.9 0
7.8 0.9 0
8.1 0.9 0
8.4 0.9 0
8.7 0.9 0
9 0.9 0
9.3 0.9 0
9.6 0.9 0
9.9 0.9 0
10.2 0.9 0
10.5 0.9 0
10.8 0.9 0
11.1 0.9 0
11.4 0.9 0
11.7 0.9 0
12 0.9 0
12.3 0.9 0
12.6 0.9 0
12.9 0.9 0
13.2 0.9 0
13.5 0.9 0
13.8 0.9 0
14.1 0.9 0
14.4 0.9 0
14.7 0.9 0
15 0.9 0
15.3 0.9 0
15.6 0.9 0
15.9 0.9 0
16.2 0.9 0
16.5 0.9 0
16.8 0.9 0
17.1 0.9 0
17.4 0.9 0
17.7 0.9 0
18 0.9 0
18.3 0.9 0
18.6 0.9 0
18.9 0.9 0
19.2 0.9 0
19.5 0.9 0
19.8 0.9 0
20.1 0.9 0
20.4 0.9 0
20.7 0.9 0
21 0.9 0
21.3 0.9 0
21.6 0.9 0
21.9 0.9 0
22.2 0.9 0
22.5 0.9 0
22.8 0.9 0
23.1 0.9 0
23.4 0.9 0
23.7 0.9 0
24 0.9 0
24.3 0.9 0
24.6 0.9 0
24.9 0.9 0
25.2 0.9 0
25.5 0.9 0
25.8 0.9 0
26.1 0.9 0
26.4 0.9 0
26.7 0.9 0
27 0.9 0
27.3 0.9 0
27.6 0.9 0
27.9 0.9 0
28.2 0.9 0
28.5 0.9 0
28.8 0.9 0
29.1 0.9 0
29.4 0.9 0
29.7 0.9 0
30 0.9 0
0 1 0
0.3 1 0
0.6 1 0
0.9 1 0
1.2 1 0
1.5 1 0
1.8 1 0
2.1 1 0
2.4 1 0
2.7 1 0
3 1 0
3.3 1 0
3.6 1 0
3.9 1 0
4.2 1 0
4.5 1 0
4.8 1 0
5.1 1 0
5.4 1 0
5.7 1 0
6 1 0
6.3 1 0
6.6 1 0
6.9 1 0
7.2 1 0
7.5 1 0
7.8 1 0
8.1 1 0
8.4 1 0
8.7 1 0
9 1 0
9.3 1 0
9.6 1 0
9.9 1 0
10.2 1 0
10.5 1 0
10.8 1 0
11.1 1 0
11.4 1 0
11.7 1 0
12 1 0
12.3 1 0
12.6 1 0
12.9 1 0
13.2 1 0
13.5 1 0
13.8 1 0
14.1 1 0
14.4 1 0
14.7 1 0
15 1 0
15.3 1 0
15.6 1 0
15.9 1 0
16.2 1 0
16.5 1 0
16.8 1 0
17.1 1 0
17.4 1 0
17.7 1 0
18 1 0
18.3 1 0
18.6 1 0
18.9 1 0
19.2 1 0
19.5 1 0
19.8 1 0
20.1 1 0
20.4 1 0
20.7 1 0
21 1 0
21.3 1 0
21.6 1 0
21.9 1 0
22.2 1 0
22.5 1 0
22.8 1 0
23.1 1 0
23.4 1 0
23.7 1 0
24 1 0
24.3 1 0
24.6 1 0
24.9 1 0
25.2 1 0
25.5 1 0
25.8 1 0
26.1 1 0
26.4 1 0
26.7 1 0
27 1 0
27.3 1 0
27.6 1 0
27.9 1 0
28.2 1 0
28.5 1 0
28.8 1 0
29.1 1 0
29.4 1 0
29.7 1 0
30 1 0

POINT_DATA 1111

SCALARS p double
LOOKUP_TABLE default
1.50659
1.50659
1.43787
1.38717
1.34033
1.29689
1.25723
1.22134
1.18886
1.15928
1.13205
1.1067
1.08286
1.06021
1.03853
1.01764
0.997419
0.977754
0.958572
0.939812
0.921424
0.903367
0.885607
0.868117
0.850869
0.833843
0.817019
0.80038
0.78391
0.767595
0.751423
0.735382
0.719462
0.703653
0.687947
0.672335
0.65681
0.641365
0.625995
0.610693
0.595455
0.580275
0.565149
0.550074
0.535044
0.520057
0.50511
0.490199
0.475322
0.460476
0.445659
0.430869
0.416104
0.401361
0.38664
0.371938
0.357255
0.342589
0.327939
0.313304
0.298682
0.284074
0.269478
0.254893
0.24032
0.225756
0.211203
0.196657
0.182121
0.167591
0.153069
0.138552
0.124041
0.109535
0.0950329
0.0805345
0.0660392
0.0515466
0.0370561
0.0225673
0.00808009
-0.00640601
-0.0208912
-0.0353756
-0.0498595
-0.064343
-0.0788261
-0.0933091
-0.107792
-0.122274
-0.136757
-0.151239
-0.165722
-0.180204
-0.194686
-0.209169
-0.223651
-0.238133
-0.252615
-0.267097
0.267097
1.50659
1.50659
1.43787
1.38717
1.34033
1.29689
1.25723
1.22134
1.18886
1.15928
1.13205
1.1067
1.08286
1.06021
1.03853
1.01764
0.997419
0.977754
0.958572
0.939812
0.921424
0.903367
0.885607
0.868117
0.850869
0.833843
0.817019
0.80038
0.78391
0.767595
0.751423
0.735382
0.719462
0.703653
0.687947
0.672335
0.65681
0.641365
0.625995
0.610693
0.595455
0.580275
0.565149
0.550074
0.535044
0.520057
0.50511
0.490199
0.475322
0.460476
0.445659
0.430869
0.416104
0.401361
0.38664
0.371938
0.357255
0.342589
0.327939
0.313304
0.298682
0.284074
0.269478
0.254893
0.24032
0.225756
0.211203
0.196657
0.182121
0.167591
0.153069
0.138552
0.124041
0.109535
0.0950329
0.0805345
0.0660392
0.0515466
0.0370561
0.0225673
0.00808009
-0.00640601
-0.0208912
-0.0353756
-0.0498595
-0.064343
-0.0788261
-0.0933091
-0.107792
-0.122274
-0.136757
-0.151239
-0.165722
-0.180204
-0.194686
-0.209169
-0.223651
-0.238133
-0.252615
-0.267097
0.267097
1.48633
1.48633
1.43629
1.38757
1.34105
1.29762
1.25788
1.22189
1.1893
1.15962
1.13231
1.10691
1.08302
1.06034
1.03863
1.01773
0.99749
0.977815
0.958624
0.939857
0.921464
0.903402
0.885639
0.868145
0.850894
0.833866
0.81704
0.800399
0.783927
0.767611
0.751437
0.735395
0.719474
0.703664
0.687957
0.672344
0.656818
0.641373
0.626002
0.6107
0.595461
0.580281
0.565154
0.550078
0.535048
0.520061
0.505113
0.490202
0.475325
0.460479
0.445662
0.430871
0.416106
0.401363
0.386642
0.37194
0.357257
0.342591
0.32794
0.313305
0.298683
0.284075
0.269479
0.254894
0.240321
0.225757
0.211203
0.196658
0.182121
0.167591
0.153069
0.138552
0.124041
0.109535
0.0950329
0.0805345
0.0660392
0.0515466
0.0370561
0.0225673
0.00808008
-0.00640602
-0.0208912
-0.0353756
-0.0498595
-0.064343
-0.0788262
-0.0933091
-0.107792
-0.122274
-0.136757
-0.151239
-0.165722
-0.180204
-0.194686
-0.209169
-0.223651
-0.238133
-0.252615
-0.267097
0.267097
1.47274
1.47274
1.43422
1.38811
1.34217
1.29881
1.25895
1.22278
1.19001
1.16016
1.13272
1.10722
1.08325
1.06052
1.03877
1.01784
0.997579
0.977886
0.958684
0.939908
0.921507
0.903439
0.885671
0.868173
0.85092
0.833888
0.81706
0.800417
0.783943
0.767625
0.751451
0.735407
0.719485
0.703674
0.687966
0.672352
0.656826
0.64138
0.626009
0.610706
0.595466
0.580286
0.565159
0.550082
0.535052
0.520065
0.505117
0.490205
0.475328
0.460481
0.445664
0.430874
0.416108
0.401365
0.386644
0.371942
0.357258
0.342592
0.327941
0.313306
0.298684
0.284076
0.26948
0.254895
0.240321
0.225758
0.211204
0.196658
0.182121
0.167592
0.153069
0.138552
0.124041
0.109535
0.095033
0.0805346
0.0660393
0.0515466
0.0370561
0.0225674
0.0080801
-0.006406
-0.0208912
-0.0353756
-0.0498595
-0.064343
-0.0788261
-0.0933091
-0.107792
-0.122274
-0.136757
-0.151239
-0.165722
-0.180204
-0.194686
-0.209169
-0.223651
-0.238133
-0.252615
-0.267097
0.267097
1.46524
1.46524
1.43274
1.38848
1.34302
1.29973
1.2598
1.2235
1.1906
1.16063
1.13309
1.1075
1.08348
1.06069
1.03891
1.01795
0.99767
0.977963
0.958748
0.939963
0.921554
0.903481
0.885708
0.868205
0.850948
0.833914
0.817083
0.800437
0.783961
0.767642
0.751466
0.735421
0.719497
0.703685
0.687976
0.672362
0.656834
0.641388
0.626016
0.610712
0.595472
0.580291
0.565164
0.550087
0.535056
0.520068
0.50512
0.490209
0.475331
0.460484
0.445667
0.430876
0.41611
0.401367
0.386645
0.371944
0.35726
0.342593
0.327943
0.313307
0.298685
0.284077
0.269481
0.254896
0.240322
0.225758
0.211204
0.196659
0.182122
0.167592
0.15307
0.138553
0.124042
0.109535
0.0950333
0.0805348
0.0660395
0.0515468
0.0370562
0.0225675
0.00808018
-0.00640595
-0.0208911
-0.0353756
-0.0498595
-0.064343
-0.0788261
-0.093309
-0.107792
-0.122274
-0.136757
-0.151239
-0.165722
-0.180204
-0.194686
-0.209169
-0.223651
-0.238133
-0.252615
-0.267097
0.267097
1.46286
1.46286
1.43224
1.38863
1.34334
1.30007
1.26012
1.22378
1.19083
1.16082
1.13324
1.10762
1.08357
1.06077
1.03897
1.018
0.997711
0.977997
0.958778
0.939988
0.921576
0.9035
0.885725
0.868221
0.850962
0.833926
0.817094
0.800447
0.78397
0.76765
0.751473
0.735428
0.719504
0.703691
0.687981
0.672366
0.656839
0.641392
0.626019
0.610716
0.595475
0.580294
0.565167
0.550089
0.535058
0.52007
0.505122
0.49021
0.475332
0.460486
0.445668
0.430877
0.416111
0.401368
0.386646
0.371944
0.357261
0.342594
0.327944
0.313308
0.298686
0.284077
0.269481
0.254896
0.240323
0.225759
0.211205
0.196659
0.182122
0.167593
0.15307
0.138553
0.124042
0.109536
0.0950334
0.080535
0.0660396
0.0515469
0.0370563
0.0225675
0.00808023
-0.00640591
-0.0208911
-0.0353756
-0.0498595
-0.064343
-0.0788261
-0.093309
-0.107792
-0.122274
-0.136757
-0.151239
-0.165722
-0.180204
-0.194686
-0.209169
-0.223651
-0.238133
-0.252615
-0.267097
0.267097
1.46524
1.46524
1.43274
1.38848
1.34302
1.29973
1.2598
1.2235
1.1906
1.16063
1.13309
1.1075
1.08348
1.06069
1.03891
1.01795
0.99767
0.977963
0.958749
0.939963
0.921554
0.903481
0.885708
0.868205
0.850948
0.833914
0.817082
0.800437
0.783962
0.767642
0.751466
0.735421
0.719497
0.703685
0.687976
0.672362
0.656834
0.641388
0.626016
0.610712
0.595472
0.580291
0.565164
0.550087
0.535056
0.520068
0.50512
0.490208
0.475331
0.460484
0.445667
0.430876
0.41611
0.401367
0.386645
0.371944
0.35726
0.342593
0.327943
0.313307
0.298686
0.284077
0.269481
0.254896
0.240322
0.225758
0.211204
0.196659
0.182122
0.167592
0.15307
0.138553
0.124042
0.109535
0.0950333
0.0805348
0.0660395
0.0515468
0.0370562
0.0225675
0.00808018
-0.00640595
-0.0208911
-0.0353756
-0.0498595
-0.064343
-0.0788261
-0.093309
-0.107792
-0.122274
-0.136757
-0.151239
-0.165722
-0.180204
-0.194686
-0.209169
-0.223651
-0.238133
-0.252615
-0.267097
0.267097
1.47274
1.47274
1.43422
1.38811
1.34217
1.29881
1.25895
1.22278
1.19001
1.16016
1.13272
1.10722
1.08325
1.06052
1.03877
1.01784
0.997578
0.977886
0.958684
0.939908
0.921506
0.903439
0.885671
0.868173
0.85092
0.833888
0.81706
0.800417
0.783943
0.767625
0.751451
0.735407
0.719485
0.703674
0.687966
0.672352
0.656826
0.64138
0.626009
0.610706
0.595466
0.580286
0.565159
0.550082
0.535052
0.520065
0.505117
0.490205
0.475328
0.460481
0.445664
0.430874
0.416108
0.401365
0.386644
0.371942
0.357258
0.342592
0.327941
0.313306
0.298684
0.284076
0.26948
0.254895
0.240321
0.225758
0.211204
0.196658
0.182121
0.167592
0.153069
0.138552
0.124041
0.109535
0.095033
0.0805346
0.0660393
0.0515466
0.0370561
0.0225674
0.0080801
-0.00640601
-0.0208912
-0.0353756
-0.0498595
-0.064343
-0.0788262
-0.0933091
-0.107792
-0.122274
-0.136757
-0.151239
-0.165722
-0.180204
-0.194686
-0.209169
-0.223651
-0.238133
-0.252615
-0.267097
0.267097
1.48633
1.48633
1.43629
1.38757
1.34105
1.29762
1.25788
1.22189
1.1893
1.15962
1.13231
1.10691
1.08302
1.06034
1.03863
1.01773
0.99749
0.977814
0.958624
0.939857
0.921463
0.903402
0.885639
0.868145
0.850894
0.833866
0.81704
0.800399
0.783927
0.767611
0.751437
0.735395
0.719474
0.703664
0.687957
0.672344
0.656818
0.641373
0.626002
0.6107
0.595461
0.580281
0.565154
0.550078
0.535048
0.520061
0.505113
0.490202
0.475325
0.460479
0.445662
0.430871
0.416106
0.401363
0.386642
0.37194
0.357257
0.342591
0.32794
0.313305
0.298683
0.284075
0.269479
0.254894
0.240321
0.225757
0.211203
0.196658
0.182121
0.167591
0.153069
0.138552
0.124041
0.109535
0.0950329
0.0805345
0.0660392
0.0515466
0.0370561
0.0225674
0.00808008
-0.00640602
-0.0208912
-0.0353756
-0.0498595
-0.064343
-0.0788262
-0.0933091
-0.107792
-0.122274
-0.136757
-0.151239
-0.165722
-0.180204
-0.194686
-0.209169
-0.223651
-0.238133
-0.252615
-0.267097
0.267097
1.50659
1.50659
1.43787
1.38717
1.34033
1.29689
1.25723
1.22134
1.18887
1.15928
1.13205
1.1067
1.08286
1.06021
1.03853
1.01764
0.997419
0.977754
0.958572
0.939812
0.921423
0.903367
0.885607
0.868116
0.850869
0.833843
0.817019
0.80038
0.78391
0.767595
0.751423
0.735382
0.719462
0.703653
0.687947
0.672335
0.65681
0.641365
0.625995
0.610693
0.595455
0.580275
0.565149
0.550073
0.535044
0.520057
0.50511
0.490199
0.475322
0.460476
0.445659
0.430869
0.416104
0.401361
0.38664
0.371938
0.357255
0.342589
0.327939
0.313304
0.298682
0.284074
0.269478
0.254893
0.24032
0.225756
0.211203
0.196658
0.182121
0.167591
0.153069
0.138552
0.124041
0.109535
0.0950329
0.0805345
0.0660392
0.0515466
0.0370561
0.0225674
0.00808009
-0.00640601
-0.0208912
-0.0353756
-0.0498595
-0.064343
-0.0788261
-0.0933091
-0.107792
-0.122274
-0.136757
-0.151239
-0.165722
-0.180204
-0.194686
-0.209169
-0.223651
-0.238133
-0.252615
-0.267097
0.267097
1.50659
1.50659
1.43787
1.38717
1.34033
1.29689
1.25723
1.22134
1.18887
1.15928
1.13205
1.1067
1.08286
1.06021
1.03853
1.01764
0.997419
0.977754
0.958572
0.939812
0.921423
0.903367
0.885607
0.868116
0.850869
0.833843
0.817019
0.80038
0.78391
0.767595
0.751423
0.735382
0.719462
0.703653
0.687947
0.672335
0.65681
0.641365
0.625995
0.610693
0.595455
0.580275
0.565149
0.550073
0.535044
0.520057
0.50511
0.490199
0.475322
0.460476
0.445659
0.430869
0.416104
0.401361
0.38664
0.371938
0.357255
0.342589
0.327939
0.313304
0.298682
0.284074
0.269478
0.254893
0.24032
0.225756
0.211203
0.196658
0.182121
0.167591
0.153069
0.138552
0.124041
0.109535
0.0950329
0.0805345
0.0660392
0.0515466
0.0370561
0.0225674
0.00808009
-0.00640601
-0.0208912
-0.0353756
-0.0498595
-0.064343
-0.0788261
-0.0933091
-0.107792
-0.122274
-0.136757
-0.151239
-0.165722
-0.180204
-0.194686
-0.209169
-0.223651
-0.238133
-0.252615
-0.267097
0.267097
