# vtk DataFile Version 2.0
FlowField
ASCII
DATASET STRUCTURED_GRID
DIMENSIONS 102 12 1 
POINTS 1224 double
0 0 0
0.3 0 0
0.6 0 0
0.9 0 0
1.2 0 0
1.5 0 0
1.8 0 0
2.1 0 0
2.4 0 0
2.7 0 0
3 0 0
3.3 0 0
3.6 0 0
3.9 0 0
4.2 0 0
4.5 0 0
4.8 0 0
5.1 0 0
5.4 0 0
5.7 0 0
6 0 0
6.3 0 0
6.6 0 0
6.9 0 0
7.2 0 0
7.5 0 0
7.8 0 0
8.1 0 0
8.4 0 0
8.7 0 0
9 0 0
9.3 0 0
9.6 0 0
9.9 0 0
10.2 0 0
10.5 0 0
10.8 0 0
11.1 0 0
11.4 0 0
11.7 0 0
12 0 0
12.3 0 0
12.6 0 0
12.9 0 0
13.2 0 0
13.5 0 0
13.8 0 0
14.1 0 0
14.4 0 0
14.7 0 0
15 0 0
15.3 0 0
15.6 0 0
15.9 0 0
16.2 0 0
16.5 0 0
16.8 0 0
17.1 0 0
17.4 0 0
17.7 0 0
18 0 0
18.3 0 0
18.6 0 0
18.9 0 0
19.2 0 0
19.5 0 0
19.8 0 0
20.1 0 0
20.4 0 0
20.7 0 0
21 0 0
21.3 0 0
21.6 0 0
21.9 0 0
22.2 0 0
22.5 0 0
22.8 0 0
23.1 0 0
23.4 0 0
23.7 0 0
24 0 0
24.3 0 0
24.6 0 0
24.9 0 0
25.2 0 0
25.5 0 0
25.8 0 0
26.1 0 0
26.4 0 0
26.7 0 0
27 0 0
27.3 0 0
27.6 0 0
27.9 0 0
28.2 0 0
28.5 0 0
28.8 0 0
29.1 0 0
29.4 0 0
29.7 0 0
30 0 0
30.3 0 0
0 0.1 0
0.3 0.1 0
0.6 0.1 0
0.9 0.1 0
1.2 0.1 0
1.5 0.1 0
1.8 0.1 0
2.1 0.1 0
2.4 0.1 0
2.7 0.1 0
3 0.1 0
3.3 0.1 0
3.6 0.1 0
3.9 0.1 0
4.2 0.1 0
4.5 0.1 0
4.8 0.1 0
5.1 0.1 0
5.4 0.1 0
5.7 0.1 0
6 0.1 0
6.3 0.1 0
6.6 0.1 0
6.9 0.1 0
7.2 0.1 0
7.5 0.1 0
7.8 0.1 0
8.1 0.1 0
8.4 0.1 0
8.7 0.1 0
9 0.1 0
9.3 0.1 0
9.6 0.1 0
9.9 0.1 0
10.2 0.1 0
10.5 0.1 0
10.8 0.1 0
11.1 0.1 0
11.4 0.1 0
11.7 0.1 0
12 0.1 0
12.3 0.1 0
12.6 0.1 0
12.9 0.1 0
13.2 0.1 0
13.5 0.1 0
13.8 0.1 0
14.1 0.1 0
14.4 0.1 0
14.7 0.1 0
15 0.1 0
15.3 0.1 0
15.6 0.1 0
15.9 0.1 0
16.2 0.1 0
16.5 0.1 0
16.8 0.1 0
17.1 0.1 0
17.4 0.1 0
17.7 0.1 0
18 0.1 0
18.3 0.1 0
18.6 0.1 0
18.9 0.1 0
19.2 0.1 0
19.5 0.1 0
19.8 0.1 0
20.1 0.1 0
20.4 0.1 0
20.7 0.1 0
21 0.1 0
21.3 0.1 0
21.6 0.1 0
21.9 0.1 0
22.2 0.1 0
22.5 0.1 0
22.8 0.1 0
23.1 0.1 0
23.4 0.1 0
23.7 0.1 0
24 0.1 0
24.3 0.1 0
24.6 0.1 0
24.9 0.1 0
25.2 0.1 0
25.5 0.1 0
25.8 0.1 0
26.1 0.1 0
26.4 0.1 0
26.7 0.1 0
27 0.1 0
27.3 0.1 0
27.6 0.1 0
27.9 0.1 0
28.2 0.1 0
28.5 0.1 0
28.8 0.1 0
29.1 0.1 0
29.4 0.1 0
29.7 0.1 0
30 0.1 0
30.3 0.1 0
0 0.2 0
0.3 0.2 0
0.6 0.2 0
0.9 0.2 0
1.2 0.2 0
1.5 0.2 0
1.8 0.2 0
2.1 0.2 0
2.4 0.2 0
2.7 0.2 0
3 0.2 0
3.3 0.2 0
3.6 0.2 0
3.9 0.2 0
4.2 0.2 0
4.5 0.2 0
4.8 0.2 0
5.1 0.2 0
5.4 0.2 0
5.7 0.2 0
6 0.2 0
6.3 0.2 0
6.6 0.2 0
6.9 0.2 0
7.2 0.2 0
7.5 0.2 0
7.8 0.2 0
8.1 0.2 0
8.4 0.2 0
8.7 0.2 0
9 0.2 0
9.3 0.2 0
9.6 0.2 0
9.9 0.2 0
10.2 0.2 0
10.5 0.2 0
10.8 0.2 0
11.1 0.2 0
11.4 0.2 0
11.7 0.2 0
12 0.2 0
12.3 0.2 0
12.6 0.2 0
12.9 0.2 0
13.2 0.2 0
13.5 0.2 0
13.8 0.2 0
14.1 0.2 0
14.4 0.2 0
14.7 0.2 0
15 0.2 0
15.3 0.2 0
15.6 0.2 0
15.9 0.2 0
16.2 0.2 0
16.5 0.2 0
16.8 0.2 0
17.1 0.2 0
17.4 0.2 0
17.7 0.2 0
18 0.2 0
18.3 0.2 0
18.6 0.2 0
18.9 0.2 0
19.2 0.2 0
19.5 0.2 0
19.8 0.2 0
20.1 0.2 0
20.4 0.2 0
20.7 0.2 0
21 0.2 0
21.3 0.2 0
21.6 0.2 0
21.9 0.2 0
22.2 0.2 0
22.5 0.2 0
22.8 0.2 0
23.1 0.2 0
23.4 0.2 0
23.7 0.2 0
24 0.2 0
24.3 0.2 0
24.6 0.2 0
24.9 0.2 0
25.2 0.2 0
25.5 0.2 0
25.8 0.2 0
26.1 0.2 0
26.4 0.2 0
26.7 0.2 0
27 0.2 0
27.3 0.2 0
27.6 0.2 0
27.9 0.2 0
28.2 0.2 0
28.5 0.2 0
28.8 0.2 0
29.1 0.2 0
29.4 0.2 0
29.7 0.2 0
30 0.2 0
30.3 0.2 0
0 0.3 0
0.3 0.3 0
0.6 0.3 0
0.9 0.3 0
1.2 0.3 0
1.5 0.3 0
1.8 0.3 0
2.1 0.3 0
2.4 0.3 0
2.7 0.3 0
3 0.3 0
3.3 0.3 0
3.6 0.3 0
3.9 0.3 0
4.2 0.3 0
4.5 0.3 0
4.8 0.3 0
5.1 0.3 0
5.4 0.3 0
5.7 0.3 0
6 0.3 0
6.3 0.3 0
6.6 0.3 0
6.9 0.3 0
7.2 0.3 0
7.5 0.3 0
7.8 0.3 0
8.1 0.3 0
8.4 0.3 0
8.7 0.3 0
9 0.3 0
9.3 0.3 0
9.6 0.3 0
9.9 0.3 0
10.2 0.3 0
10.5 0.3 0
10.8 0.3 0
11.1 0.3 0
11.4 0.3 0
11.7 0.3 0
12 0.3 0
12.3 0.3 0
12.6 0.3 0
12.9 0.3 0
13.2 0.3 0
13.5 0.3 0
13.8 0.3 0
14.1 0.3 0
14.4 0.3 0
14.7 0.3 0
15 0.3 0
15.3 0.3 0
15.6 0.3 0
15.9 0.3 0
16.2 0.3 0
16.5 0.3 0
16.8 0.3 0
17.1 0.3 0
17.4 0.3 0
17.7 0.3 0
18 0.3 0
18.3 0.3 0
18.6 0.3 0
18.9 0.3 0
19.2 0.3 0
19.5 0.3 0
19.8 0.3 0
20.1 0.3 0
20.4 0.3 0
20.7 0.3 0
21 0.3 0
21.3 0.3 0
21.6 0.3 0
21.9 0.3 0
22.2 0.3 0
22.5 0.3 0
22.8 0.3 0
23.1 0.3 0
23.4 0.3 0
23.7 0.3 0
24 0.3 0
24.3 0.3 0
24.6 0.3 0
24.9 0.3 0
25.2 0.3 0
25.5 0.3 0
25.8 0.3 0
26.1 0.3 0
26.4 0.3 0
26.7 0.3 0
27 0.3 0
27.3 0.3 0
27.6 0.3 0
27.9 0.3 0
28.2 0.3 0
28.5 0.3 0
28.8 0.3 0
29.1 0.3 0
29.4 0.3 0
29.7 0.3 0
30 0.3 0
30.3 0.3 0
0 0.4 0
0.3 0.4 0
0.6 0.4 0
0.9 0.4 0
1.2 0.4 0
1.5 0.4 0
1.8 0.4 0
2.1 0.4 0
2.4 0.4 0
2.7 0.4 0
3 0.4 0
3.3 0.4 0
3.6 0.4 0
3.9 0.4 0
4.2 0.4 0
4.5 0.4 0
4.8 0.4 0
5.1 0.4 0
5.4 0.4 0
5.7 0.4 0
6 0.4 0
6.3 0.4 0
6.6 0.4 0
6.9 0.4 0
7.2 0.4 0
7.5 0.4 0
7.8 0.4 0
8.1 0.4 0
8.4 0.4 0
8.7 0.4 0
9 0.4 0
9.3 0.4 0
9.6 0.4 0
9.9 0.4 0
10.2 0.4 0
10.5 0.4 0
10.8 0.4 0
11.1 0.4 0
11.4 0.4 0
11.7 0.4 0
12 0.4 0
12.3 0.4 0
12.6 0.4 0
12.9 0.4 0
13.2 0.4 0
13.5 0.4 0
13.8 0.4 0
14.1 0.4 0
14.4 0.4 0
14.7 0.4 0
15 0.4 0
15.3 0.4 0
15.6 0.4 0
15.9 0.4 0
16.2 0.4 0
16.5 0.4 0
16.8 0.4 0
17.1 0.4 0
17.4 0.4 0
17.7 0.4 0
18 0.4 0
18.3 0.4 0
18.6 0.4 0
18.9 0.4 0
19.2 0.4 0
19.5 0.4 0
19.8 0.4 0
20.1 0.4 0
20.4 0.4 0
20.7 0.4 0
21 0.4 0
21.3 0.4 0
21.6 0.4 0
21.9 0.4 0
22.2 0.4 0
22.5 0.4 0
22.8 0.4 0
23.1 0.4 0
23.4 0.4 0
23.7 0.4 0
24 0.4 0
24.3 0.4 0
24.6 0.4 0
24.9 0.4 0
25.2 0.4 0
25.5 0.4 0
25.8 0.4 0
26.1 0.4 0
26.4 0.4 0
26.7 0.4 0
27 0.4 0
27.3 0.4 0
27.6 0.4 0
27.9 0.4 0
28.2 0.4 0
28.5 0.4 0
28.8 0.4 0
29.1 0.4 0
29.4 0.4 0
29.7 0.4 0
30 0.4 0
30.3 0.4 0
0 0.5 0
0.3 0.5 0
0.6 0.5 0
0.9 0.5 0
1.2 0.5 0
1.5 0.5 0
1.8 0.5 0
2.1 0.5 0
2.4 0.5 0
2.7 0.5 0
3 0.5 0
3.3 0.5 0
3.6 0.5 0
3.9 0.5 0
4.2 0.5 0
4.5 0.5 0
4.8 0.5 0
5.1 0.5 0
5.4 0.5 0
5.7 0.5 0
6 0.5 0
6.3 0.5 0
6.6 0.5 0
6.9 0.5 0
7.2 0.5 0
7.5 0.5 0
7.8 0.5 0
8.1 0.5 0
8.4 0.5 0
8.7 0.5 0
9 0.5 0
9.3 0.5 0
9.6 0.5 0
9.9 0.5 0
10.2 0.5 0
10.5 0.5 0
10.8 0.5 0
11.1 0.5 0
11.4 0.5 0
11.7 0.5 0
12 0.5 0
12.3 0.5 0
12.6 0.5 0
12.9 0.5 0
13.2 0.5 0
13.5 0.5 0
13.8 0.5 0
14.1 0.5 0
14.4 0.5 0
14.7 0.5 0
15 0.5 0
15.3 0.5 0
15.6 0.5 0
15.9 0.5 0
16.2 0.5 0
16.5 0.5 0
16.8 0.5 0
17.1 0.5 0
17.4 0.5 0
17.7 0.5 0
18 0.5 0
18.3 0.5 0
18.6 0.5 0
18.9 0.5 0
19.2 0.5 0
19.5 0.5 0
19.8 0.5 0
20.1 0.5 0
20.4 0.5 0
20.7 0.5 0
21 0.5 0
21.3 0.5 0
21.6 0.5 0
21.9 0.5 0
22.2 0.5 0
22.5 0.5 0
22.8 0.5 0
23.1 0.5 0
23.4 0.5 0
23.7 0.5 0
24 0.5 0
24.3 0.5 0
24.6 0.5 0
24.9 0.5 0
25.2 0.5 0
25.5 0.5 0
25.8 0.5 0
26.1 0.5 0
26.4 0.5 0
26.7 0.5 0
27 0.5 0
27.3 0.5 0
27.6 0.5 0
27.9 0.5 0
28.2 0.5 0
28.5 0.5 0
28.8 0.5 0
29.1 0.5 0
29.4 0.5 0
29.7 0.5 0
30 0.5 0
30.3 0.5 0
0 0.6 0
0.3 0.6 0
0.6 0.6 0
0.9 0.6 0
1.2 0.6 0
1.5 0.6 0
1.8 0.6 0
2.1 0.6 0
2.4 0.6 0
2.7 0.6 0
3 0.6 0
3.3 0.6 0
3.6 0.6 0
3.9 0.6 0
4.2 0.6 0
4.5 0.6 0
4.8 0.6 0
5.1 0.6 0
5.4 0.6 0
5.7 0.6 0
6 0.6 0
6.3 0.6 0
6.6 0.6 0
6.9 0.6 0
7.2 0.6 0
7.5 0.6 0
7.8 0.6 0
8.1 0.6 0
8.4 0.6 0
8.7 0.6 0
9 0.6 0
9.3 0.6 0
9.6 0.6 0
9.9 0.6 0
10.2 0.6 0
10.5 0.6 0
10.8 0.6 0
11.1 0.6 0
11.4 0.6 0
11.7 0.6 0
12 0.6 0
12.3 0.6 0
12.6 0.6 0
12.9 0.6 0
13.2 0.6 0
13.5 0.6 0
13.8 0.6 0
14.1 0.6 0
14.4 0.6 0
14.7 0.6 0
15 0.6 0
15.3 0.6 0
15.6 0.6 0
15.9 0.6 0
16.2 0.6 0
16.5 0.6 0
16.8 0.6 0
17.1 0.6 0
17.4 0.6 0
17.7 0.6 0
18 0.6 0
18.3 0.6 0
18.6 0.6 0
18.9 0.6 0
19.2 0.6 0
19.5 0.6 0
19.8 0.6 0
20.1 0.6 0
20.4 0.6 0
20.7 0.6 0
21 0.6 0
21.3 0.6 0
21.6 0.6 0
21.9 0.6 0
22.2 0.6 0
22.5 0.6 0
22.8 0.6 0
23.1 0.6 0
23.4 0.6 0
23.7 0.6 0
24 0.6 0
24.3 0.6 0
24.6 0.6 0
24.9 0.6 0
25.2 0.6 0
25.5 0.6 0
25.8 0.6 0
26.1 0.6 0
26.4 0.6 0
26.7 0.6 0
27 0.6 0
27.3 0.6 0
27.6 0.6 0
27.9 0.6 0
28.2 0.6 0
28.5 0.6 0
28.8 0.6 0
29.1 0.6 0
29.4 0.6 0
29.7 0.6 0
30 0.6 0
30.3 0.6 0
0 0.7 0
0.3 0.7 0
0.6 0.7 0
0.9 0.7 0
1.2 0.7 0
1.5 0.7 0
1.8 0.7 0
2.1 0.7 0
2.4 0.7 0
2.7 0.7 0
3 0.7 0
3.3 0.7 0
3.6 0.7 0
3.9 0.7 0
4.2 0.7 0
4.5 0.7 0
4.8 0.7 0
5.1 0.7 0
5.4 0.7 0
5.7 0.7 0
6 0.7 0
6.3 0.7 0
6.6 0.7 0
6.9 0.7 0
7.2 0.7 0
7.5 0.7 0
7.8 0.7 0
8.1 0.7 0
8.4 0.7 0
8.7 0.7 0
9 0.7 0
9.3 0.7 0
9.6 0.7 0
9.9 0.7 0
10.2 0.7 0
10.5 0.7 0
10.8 0.7 0
11.1 0.7 0
11.4 0.7 0
11.7 0.7 0
12 0.7 0
12.3 0.7 0
12.6 0.7 0
12.9 0.7 0
13.2 0.7 0
13.5 0.7 0
13.8 0.7 0
14.1 0.7 0
14.4 0.7 0
14.7 0.7 0
15 0.7 0
15.3 0.7 0
15.6 0.7 0
15.9 0.7 0
16.2 0.7 0
16.5 0.7 0
16.8 0.7 0
17.1 0.7 0
17.4 0.7 0
17.7 0.7 0
18 0.7 0
18.3 0.7 0
18.6 0.7 0
18.9 0.7 0
19.2 0.7 0
19.5 0.7 0
19.8 0.7 0
20.1 0.7 0
20.4 0.7 0
20.7 0.7 0
21 0.7 0
21.3 0.7 0
21.6 0.7 0
21.9 0.7 0
22.2 0.7 0
22.5 0.7 0
22.8 0.7 0
23.1 0.7 0
23.4 0.7 0
23.7 0.7 0
24 0.7 0
24.3 0.7 0
24.6 0.7 0
24.9 0.7 0
25.2 0.7 0
25.5 0.7 0
25.8 0.7 0
26.1 0.7 0
26.4 0.7 0
26.7 0.7 0
27 0.7 0
27.3 0.7 0
27.6 0.7 0
27.9 0.7 0
28.2 0.7 0
28.5 0.7 0
28.8 0.7 0
29.1 0.7 0
29.4 0.7 0
29.7 0.7 0
30 0.7 0
30.3 0.7 0
0 0.8 0
0.3 0.8 0
0.6 0.8 0
0.9 0.8 0
1.2 0.8 0
1.5 0.8 0
1.8 0.8 0
2.1 0.8 0
2.4 0.8 0
2.7 0.8 0
3 0.8 0
3.3 0.8 0
3.6 0.8 0
3.9 0.8 0
4.2 0.8 0
4.5 0.8 0
4.8 0.8 0
5.1 0.8 0
5.4 0.8 0
5.7 0.8 0
6 0.8 0
6.3 0.8 0
6.6 0.8 0
6.9 0.8 0
7.2 0.8 0
7.5 0.8 0
7.8 0.8 0
8.1 0.8 0
8.4 0.8 0
8.7 0.8 0
9 0.8 0
9.3 0.8 0
9.6 0.8 0
9.9 0.8 0
10.2 0.8 0
10.5 0.8 0
10.8 0.8 0
11.1 0.8 0
11.4 0.8 0
11.7 0.8 0
12 0.8 0
12.3 0.8 0
12.6 0.8 0
12.9 0.8 0
13.2 0.8 0
13.5 0.8 0
13.8 0.8 0
14.1 0.8 0
14.4 0.8 0
14.7 0.8 0
15 0.8 0
15.3 0.8 0
15.6 0.8 0
15.9 0.8 0
16.2 0.8 0
16.5 0.8 0
16.8 0.8 0
17.1 0.8 0
17.4 0.8 0
17.7 0.8 0
18 0.8 0
18.3 0.8 0
18.6 0.8 0
18.9 0.8 0
19.2 0.8 0
19.5 0.8 0
19.8 0.8 0
20.1 0.8 0
20.4 0.8 0
20.7 0.8 0
21 0.8 0
21.3 0.8 0
21.6 0.8 0
21.9 0.8 0
22.2 0.8 0
22.5 0.8 0
22.8 0.8 0
23.1 0.8 0
23.4 0.8 0
23.7 0.8 0
24 0.8 0
24.3 0.8 0
24.6 0.8 0
24.9 0.8 0
25.2 0.8 0
25.5 0.8 0
25.8 0.8 0
26.1 0.8 0
26.4 0.8 0
26.7 0.8 0
27 0.8 0
27.3 0.8 0
27.6 0.8 0
27.9 0.8 0
28.2 0.8 0
28.5 0.8 0
28.8 0.8 0
29.1 0.8 0
29.4 0.8 0
29.7 0.8 0
30 0.8 0
30.3 0.8 0
0 0.9 0
0.3 0.9 0
0.6 0.9 0
0.9 0.9 0
1.2 0.9 0
1.5 0.9 0
1.8 0.9 0
2.1 0.9 0
2.4 0.9 0
2.7 0.9 0
3 0.9 0
3.3 0.9 0
3.6 0.9 0
3.9 0.9 0
4.2 0.9 0
4.5 0.9 0
4.8 0.9 0
5.1 0.9 0
5.4 0.9 0
5.7 0.9 0
6 0.9 0
6.3 0.9 0
6.6 0.9 0
6.9 0.9 0
7.2 0.9 0
7.5 0.9 0
7.8 0.9 0
8.1 0.9 0
8.4 0.9 0
8.7 0.9 0
9 0.9 0
9.3 0.9 0
9.6 0.9 0
9.9 0.9 0
10.2 0.9 0
10.5 0.9 0
10.8 0.9 0
11.1 0.9 0
11.4 0.9 0
11.7 0.9 0
12 0.9 0
12.3 0.9 0
12.6 0.9 0
12.9 0.9 0
13.2 0.9 0
13.5 0.9 0
13.8 0.9 0
14.1 0.9 0
14.4 0.9 0
14.7 0.9 0
15 0.9 0
15.3 0.9 0
15.6 0.9 0
15.9 0.9 0
16.2 0.9 0
16.5 0.9 0
16.8 0.9 0
17.1 0.9 0
17.4 0.9 0
17.7 0.9 0
18 0.9 0
18.3 0.9 0
18.6 0.9 0
18.9 0.9 0
19.2 0.9 0
19.5 0.9 0
19.8 0.9 0
20.1 0.9 0
20.4 0.9 0
20.7 0.9 0
21 0.9 0
21.3 0.9 0
21.6 0.9 0
21.9 0.9 0
22.2 0.9 0
22.5 0.9 0
22.8 0.9 0
23.1 0.9 0
23.4 0.9 0
23.7 0.9 0
24 0.9 0
24.3 0.9 0
24.6 0.9 0
24.9 0.9 0
25.2 0.9 0
25.5 0.9 0
25.8 0.9 0
26.1 0.9 0
26.4 0.9 0
26.7 0.9 0
27 0.9 0
27.3 0.9 0
27.6 0.9 0
27.9 0.9 0
28.2 0.9 0
28.5 0.9 0
28.8 0.9 0
29.1 0.9 0
29.4 0.9 0
29.7 0.9 0
30 0.9 0
30.3 0.9 0
0 1 0
0.3 1 0
0.6 1 0
0.9 1 0
1.2 1 0
1.5 1 0
1.8 1 0
2.1 1 0
2.4 1 0
2.7 1 0
3 1 0
3.3 1 0
3.6 1 0
3.9 1 0
4.2 1 0
4.5 1 0
4.8 1 0
5.1 1 0
5.4 1 0
5.7 1 0
6 1 0
6.3 1 0
6.6 1 0
6.9 1 0
7.2 1 0
7.5 1 0
7.8 1 0
8.1 1 0
8.4 1 0
8.7 1 0
9 1 0
9.3 1 0
9.6 1 0
9.9 1 0
10.2 1 0
10.5 1 0
10.8 1 0
11.1 1 0
11.4 1 0
11.7 1 0
12 1 0
12.3 1 0
12.6 1 0
12.9 1 0
13.2 1 0
13.5 1 0
13.8 1 0
14.1 1 0
14.4 1 0
14.7 1 0
15 1 0
15.3 1 0
15.6 1 0
15.9 1 0
16.2 1 0
16.5 1 0
16.8 1 0
17.1 1 0
17.4 1 0
17.7 1 0
18 1 0
18.3 1 0
18.6 1 0
18.9 1 0
19.2 1 0
19.5 1 0
19.8 1 0
20.1 1 0
20.4 1 0
20.7 1 0
21 1 0
21.3 1 0
21.6 1 0
21.9 1 0
22.2 1 0
22.5 1 0
22.8 1 0
23.1 1 0
23.4 1 0
23.7 1 0
24 1 0
24.3 1 0
24.6 1 0
24.9 1 0
25.2 1 0
25.5 1 0
25.8 1 0
26.1 1 0
26.4 1 0
26.7 1 0
27 1 0
27.3 1 0
27.6 1 0
27.9 1 0
28.2 1 0
28.5 1 0
28.8 1 0
29.1 1 0
29.4 1 0
29.7 1 0
30 1 0
30.3 1 0
0 1.1 0
0.3 1.1 0
0.6 1.1 0
0.9 1.1 0
1.2 1.1 0
1.5 1.1 0
1.8 1.1 0
2.1 1.1 0
2.4 1.1 0
2.7 1.1 0
3 1.1 0
3.3 1.1 0
3.6 1.1 0
3.9 1.1 0
4.2 1.1 0
4.5 1.1 0
4.8 1.1 0
5.1 1.1 0
5.4 1.1 0
5.7 1.1 0
6 1.1 0
6.3 1.1 0
6.6 1.1 0
6.9 1.1 0
7.2 1.1 0
7.5 1.1 0
7.8 1.1 0
8.1 1.1 0
8.4 1.1 0
8.7 1.1 0
9 1.1 0
9.3 1.1 0
9.6 1.1 0
9.9 1.1 0
10.2 1.1 0
10.5 1.1 0
10.8 1.1 0
11.1 1.1 0
11.4 1.1 0
11.7 1.1 0
12 1.1 0
12.3 1.1 0
12.6 1.1 0
12.9 1.1 0
13.2 1.1 0
13.5 1.1 0
13.8 1.1 0
14.1 1.1 0
14.4 1.1 0
14.7 1.1 0
15 1.1 0
15.3 1.1 0
15.6 1.1 0
15.9 1.1 0
16.2 1.1 0
16.5 1.1 0
16.8 1.1 0
17.1 1.1 0
17.4 1.1 0
17.7 1.1 0
18 1.1 0
18.3 1.1 0
18.6 1.1 0
18.9 1.1 0
19.2 1.1 0
19.5 1.1 0
19.8 1.1 0
20.1 1.1 0
20.4 1.1 0
20.7 1.1 0
21 1.1 0
21.3 1.1 0
21.6 1.1 0
21.9 1.1 0
22.2 1.1 0
22.5 1.1 0
22.8 1.1 0
23.1 1.1 0
23.4 1.1 0
23.7 1.1 0
24 1.1 0
24.3 1.1 0
24.6 1.1 0
24.9 1.1 0
25.2 1.1 0
25.5 1.1 0
25.8 1.1 0
26.1 1.1 0
26.4 1.1 0
26.7 1.1 0
27 1.1 0
27.3 1.1 0
27.6 1.1 0
27.9 1.1 0
28.2 1.1 0
28.5 1.1 0
28.8 1.1 0
29.1 1.1 0
29.4 1.1 0
29.7 1.1 0
30 1.1 0
30.3 1.1 0

POINT_DATA 1224

VECTORS velocity double
LOOKUP_TABLE default
-1 0 0
-0.963483 0 0
-0.955351 0 0
-0.954037 0 0
-0.953824 0 0
-0.953786 0 0
-0.953778 0 0
-0.953776 0 0
-0.953774 0 0
-0.953773 0 0
-0.953772 0 0
-0.953771 0 0
-0.953769 0 0
-0.953768 0 0
-0.953767 0 0
-0.953766 0 0
-0.953765 0 0
-0.953764 0 0
-0.953763 0 0
-0.953762 0 0
-0.95376 0 0
-0.953759 0 0
-0.953758 0 0
-0.953757 0 0
-0.953756 0 0
-0.953755 0 0
-0.953754 0 0
-0.953753 0 0
-0.953752 0 0
-0.953751 0 0
-0.95375 0 0
-0.95375 0 0
-0.953749 0 0
-0.953748 0 0
-0.953747 0 0
-0.953746 0 0
-0.953745 0 0
-0.953745 0 0
-0.953744 0 0
-0.953743 0 0
-0.953742 0 0
-0.953742 0 0
-0.953741 0 0
-0.95374 0 0
-0.95374 0 0
-0.953739 0 0
-0.953739 0 0
-0.953738 0 0
-0.953738 0 0
-0.953737 0 0
-0.953737 0 0
-0.953736 0 0
-0.953736 0 0
-0.953736 0 0
-0.953735 0 0
-0.953735 0 0
-0.953735 0 0
-0.953735 0 0
-0.953734 0 0
-0.953734 0 0
-0.953734 0 0
-0.953734 0 0
-0.953734 0 0
-0.953734 0 0
-0.953734 0 0
-0.953734 0 0
-0.953734 0 0
-0.953734 0 0
-0.953734 0 0
-0.953734 0 0
-0.953734 0 0
-0.953734 0 0
-0.953734 0 0
-0.953734 0 0
-0.953734 0 0
-0.953734 0 0
-0.953735 0 0
-0.953735 0 0
-0.953735 0 0
-0.953735 0 0
-0.953736 0 0
-0.953736 0 0
-0.953736 0 0
-0.953737 0 0
-0.953737 0 0
-0.953737 0 0
-0.953738 0 0
-0.953738 0 0
-0.953739 0 0
-0.953739 0 0
-0.953739 0 0
-0.95374 0 0
-0.95374 0 0
-0.953741 0 0
-0.953741 0 0
-0.953743 0 0
-0.953747 0 0
-0.953769 0 0
-0.953893 0 0
-0.954906 0 0
-0.954906 0 0
-1 0 0
1 -0.0121705 0
0.963483 0.0121705 0
0.955351 0.00270894 0
0.954037 0.000436338 0
0.953824 6.94439e-05 0
0.953786 1.10109e-05 0
0.953778 9.70697e-07 0
0.953776 -8.40945e-07 0
0.953774 -1.16837e-06 0
0.953773 -1.22098e-06 0
0.953772 -1.22182e-06 0
0.953771 -1.21236e-06 0
0.953769 -1.20028e-06 0
0.953768 -1.187e-06 0
0.953767 -1.17277e-06 0
0.953766 -1.15765e-06 0
0.953765 -1.14166e-06 0
0.953764 -1.12482e-06 0
0.953763 -1.10714e-06 0
0.953762 -1.08865e-06 0
0.95376 -1.06935e-06 0
0.953759 -1.04928e-06 0
0.953758 -1.02845e-06 0
0.953757 -1.00688e-06 0
0.953756 -9.84588e-07 0
0.953755 -9.61607e-07 0
0.953754 -9.37956e-07 0
0.953753 -9.13659e-07 0
0.953752 -8.88739e-07 0
0.953751 -8.63223e-07 0
0.95375 -8.37136e-07 0
0.95375 -8.10504e-07 0
0.953749 -7.83355e-07 0
0.953748 -7.55716e-07 0
0.953747 -7.27614e-07 0
0.953746 -6.99079e-07 0
0.953745 -6.70139e-07 0
0.953745 -6.40823e-07 0
0.953744 -6.11161e-07 0
0.953743 -5.81184e-07 0
0.953742 -5.50921e-07 0
0.953742 -5.20402e-07 0
0.953741 -4.8966e-07 0
0.95374 -4.58725e-07 0
0.95374 -4.27629e-07 0
0.953739 -3.96422e-07 0
0.953739 -3.65109e-07 0
0.953738 -3.33718e-07 0
0.953738 -3.023e-07 0
0.953737 -2.71066e-07 0
0.953737 -2.39784e-07 0
0.953736 -2.08651e-07 0
0.953736 -1.77539e-07 0
0.953736 -1.46432e-07 0
0.953735 -1.15456e-07 0
0.953735 -8.46628e-08 0
0.953735 -5.40954e-08 0
0.953735 -2.37722e-08 0
0.953734 6.28414e-09 0
0.953734 3.60363e-08 0
0.953734 6.54534e-08 0
0.953734 9.45062e-08 0
0.953734 1.23166e-07 0
0.953734 1.51405e-07 0
0.953734 1.79195e-07 0
0.953734 2.06508e-07 0
0.953734 2.3332e-07 0
0.953734 2.59602e-07 0
0.953734 2.85331e-07 0
0.953734 3.10481e-07 0
0.953734 3.35028e-07 0
0.953734 3.58949e-07 0
0.953734 3.82221e-07 0
0.953734 4.04822e-07 0
0.953734 4.2673e-07 0
0.953734 4.47926e-07 0
0.953735 4.6839e-07 0
0.953735 4.88103e-07 0
0.953735 5.07046e-07 0
0.953735 5.25202e-07 0
0.953736 5.42556e-07 0
0.953736 5.59091e-07 0
0.953736 5.74792e-07 0
0.953737 5.89646e-07 0
0.953737 6.0364e-07 0
0.953737 6.16761e-07 0
0.953738 6.28999e-07 0
0.953738 6.40342e-07 0
0.953739 6.5078e-07 0
0.953739 6.603e-07 0
0.953739 6.68862e-07 0
0.95374 6.76295e-07 0
0.95374 6.81716e-07 0
0.953741 6.80478e-07 0
0.953741 6.48005e-07 0
0.953743 4.53765e-07 0
0.953747 -6.04825e-07 0
0.953769 -6.45459e-06 0
0.953893 -4.04514e-05 0
0.954906 -0.000336913 0
0.954906 -0.00163161 0
1 -0.00163161 0
1 -0.00840213 0
1.0113 0.00840213 0
1.01146 0.00265682 0
1.0111 0.000554278 0
1.011 0.000103596 0
1.01098 1.82092e-05 0
1.01097 2.34429e-06 0
1.01097 -6.03433e-07 0
1.01097 -1.14526e-06 0
1.01096 -1.2375e-06 0
1.01096 -1.24536e-06 0
1.01096 -1.23691e-06 0
1.01096 -1.22477e-06 0
1.01096 -1.21124e-06 0
1.01096 -1.19673e-06 0
1.01096 -1.18131e-06 0
1.01095 -1.16501e-06 0
1.01095 -1.14785e-06 0
1.01095 -1.12984e-06 0
1.01095 -1.111e-06 0
1.01095 -1.09134e-06 0
1.01095 -1.0709e-06 0
1.01095 -1.04968e-06 0
1.01094 -1.02771e-06 0
1.01094 -1.00502e-06 0
1.01094 -9.81623e-07 0
1.01094 -9.57544e-07 0
1.01094 -9.32809e-07 0
1.01094 -9.07443e-07 0
1.01094 -8.8147e-07 0
1.01094 -8.54919e-07 0
1.01094 -8.27814e-07 0
1.01093 -8.00184e-07 0
1.01093 -7.72057e-07 0
1.01093 -7.43461e-07 0
1.01093 -7.14425e-07 0
1.01093 -6.84979e-07 0
1.01093 -6.55151e-07 0
1.01093 -6.24974e-07 0
1.01093 -5.94476e-07 0
1.01093 -5.6369e-07 0
1.01093 -5.32645e-07 0
1.01093 -5.01375e-07 0
1.01093 -4.6991e-07 0
1.01093 -4.38283e-07 0
1.01093 -4.06523e-07 0
1.01092 -3.74667e-07 0
1.01092 -3.42746e-07 0
1.01092 -3.10796e-07 0
1.01092 -2.78829e-07 0
1.01092 -2.46908e-07 0
1.01092 -2.15038e-07 0
1.01092 -1.83266e-07 0
1.01092 -1.51627e-07 0
1.01092 -1.20146e-07 0
1.01092 -8.88541e-08 0
1.01092 -5.77832e-08 0
1.01092 -2.69656e-08 0
1.01092 3.56741e-09 0
1.01092 3.37864e-08 0
1.01092 6.36612e-08 0
1.01092 9.31621e-08 0
1.01092 1.2226e-07 0
1.01092 1.50926e-07 0
1.01092 1.79133e-07 0
1.01092 2.06852e-07 0
1.01092 2.34057e-07 0
1.01092 2.60721e-07 0
1.01092 2.86819e-07 0
1.01092 3.12325e-07 0
1.01092 3.37215e-07 0
1.01092 3.61466e-07 0
1.01092 3.85054e-07 0
1.01093 4.07958e-07 0
1.01093 4.30155e-07 0
1.01093 4.51625e-07 0
1.01093 4.72348e-07 0
1.01093 4.92306e-07 0
1.01093 5.1148e-07 0
1.01093 5.29852e-07 0
1.01093 5.47406e-07 0
1.01093 5.64127e-07 0
1.01093 5.8e-07 0
1.01093 5.9501e-07 0
1.01093 6.09144e-07 0
1.01093 6.22392e-07 0
1.01093 6.3474e-07 0
1.01093 6.46179e-07 0
1.01093 6.56698e-07 0
1.01094 6.66278e-07 0
1.01094 6.74863e-07 0
1.01094 6.82175e-07 0
1.01094 6.86772e-07 0
1.01094 6.81038e-07 0
1.01094 6.24754e-07 0
1.01094 3.05281e-07 0
1.01094 -1.40512e-06 0
1.01096 -1.05393e-05 0
1.01102 -5.98154e-05 0
1.011 -0.000331449 0
1.011 -0.00126668 0
1 -0.00126668 0
1 -0.00521339 0
1.00956 0.00521339 0
1.0115 0.00201082 0
1.01172 0.000480858 0
1.01174 9.74733e-05 0
1.01174 1.78004e-05 0
1.01173 2.30665e-06 0
1.01173 -6.26421e-07 0
1.01173 -1.16839e-06 0
1.01173 -1.2603e-06 0
1.01173 -1.26776e-06 0
1.01173 -1.25901e-06 0
1.01173 -1.24661e-06 0
1.01172 -1.23285e-06 0
1.01172 -1.21811e-06 0
1.01172 -1.20246e-06 0
1.01172 -1.18592e-06 0
1.01172 -1.16851e-06 0
1.01172 -1.15024e-06 0
1.01172 -1.13112e-06 0
1.01171 -1.11118e-06 0
1.01171 -1.09045e-06 0
1.01171 -1.06893e-06 0
1.01171 -1.04665e-06 0
1.01171 -1.02363e-06 0
1.01171 -9.999e-07 0
1.01171 -9.75481e-07 0
1.01171 -9.50396e-07 0
1.0117 -9.24672e-07 0
1.0117 -8.98334e-07 0
1.0117 -8.7141e-07 0
1.0117 -8.43925e-07 0
1.0117 -8.15909e-07 0
1.0117 -7.87388e-07 0
1.0117 -7.58394e-07 0
1.0117 -7.28953e-07 0
1.0117 -6.99098e-07 0
1.0117 -6.68857e-07 0
1.0117 -6.38262e-07 0
1.01169 -6.07343e-07 0
1.01169 -5.76133e-07 0
1.01169 -5.44662e-07 0
1.01169 -5.12963e-07 0
1.01169 -4.81067e-07 0
1.01169 -4.49009e-07 0
1.01169 -4.16818e-07 0
1.01169 -3.8453e-07 0
1.01169 -3.52178e-07 0
1.01169 -3.19795e-07 0
1.01169 -2.87402e-07 0
1.01169 -2.55051e-07 0
1.01169 -2.22757e-07 0
1.01169 -1.90565e-07 0
1.01169 -1.58508e-07 0
1.01169 -1.26614e-07 0
1.01169 -9.49146e-08 0
1.01169 -6.34415e-08 0
1.01169 -3.22273e-08 0
1.01169 -1.30355e-09 0
1.01169 2.92995e-08 0
1.01169 5.95515e-08 0
1.01169 8.94223e-08 0
1.01169 1.18882e-07 0
1.01169 1.47903e-07 0
1.01169 1.76455e-07 0
1.01169 2.04511e-07 0
1.01169 2.32044e-07 0
1.01169 2.59027e-07 0
1.01169 2.85433e-07 0
1.01169 3.11239e-07 0
1.01169 3.36418e-07 0
1.01169 3.60947e-07 0
1.01169 3.84803e-07 0
1.01169 4.07964e-07 0
1.01169 4.30408e-07 0
1.01169 4.52114e-07 0
1.01169 4.73062e-07 0
1.01169 4.93233e-07 0
1.01169 5.12609e-07 0
1.01169 5.31172e-07 0
1.01169 5.48906e-07 0
1.0117 5.65795e-07 0
1.0117 5.81823e-07 0
1.0117 5.96979e-07 0
1.0117 6.11247e-07 0
1.0117 6.24616e-07 0
1.0117 6.37075e-07 0
1.0117 6.48614e-07 0
1.0117 6.59221e-07 0
1.0117 6.68879e-07 0
1.0117 6.7753e-07 0
1.0117 6.849e-07 0
1.0117 6.89546e-07 0
1.0117 6.8385e-07 0
1.01171 6.27615e-07 0
1.01171 3.09366e-07 0
1.01171 -1.37711e-06 0
1.01171 -1.01339e-05 0
1.01169 -5.41281e-05 0
1.01145 -0.000252687 0
1.01145 -0.0008457 0
1 -0.0008457 0
1 -0.00249803 0
1.00814 0.00249803 0
1.01098 0.00106661 0
1.0116 0.000273156 0
1.01172 5.73441e-05 0
1.01174 1.02559e-05 0
1.01174 8.73803e-07 0
1.01174 -9.1485e-07 0
1.01174 -1.24136e-06 0
1.01174 -1.29232e-06 0
1.01173 -1.29181e-06 0
1.01173 -1.28135e-06 0
1.01173 -1.26845e-06 0
1.01173 -1.25442e-06 0
1.01173 -1.23945e-06 0
1.01173 -1.22357e-06 0
1.01173 -1.20679e-06 0
1.01172 -1.18912e-06 0
1.01172 -1.17059e-06 0
1.01172 -1.1512e-06 0
1.01172 -1.13098e-06 0
1.01172 -1.10995e-06 0
1.01172 -1.08813e-06 0
1.01172 -1.06554e-06 0
1.01172 -1.0422e-06 0
1.01171 -1.01814e-06 0
1.01171 -9.93383e-07 0
1.01171 -9.6795e-07 0
1.01171 -9.4187e-07 0
1.01171 -9.15168e-07 0
1.01171 -8.87872e-07 0
1.01171 -8.60009e-07 0
1.01171 -8.31608e-07 0
1.01171 -8.02697e-07 0
1.0117 -7.73305e-07 0
1.0117 -7.43462e-07 0
1.0117 -7.13199e-07 0
1.0117 -6.82547e-07 0
1.0117 -6.51536e-07 0
1.0117 -6.20198e-07 0
1.0117 -5.88565e-07 0
1.0117 -5.56669e-07 0
1.0117 -5.24543e-07 0
1.0117 -4.9222e-07 0
1.0117 -4.59732e-07 0
1.0117 -4.27112e-07 0
1.0117 -3.94394e-07 0
1.0117 -3.61612e-07 0
1.0117 -3.28799e-07 0
1.01169 -2.95984e-07 0
1.01169 -2.63208e-07 0
1.01169 -2.30497e-07 0
1.01169 -1.97888e-07 0
1.01169 -1.65416e-07 0
1.01169 -1.33111e-07 0
1.01169 -1.01006e-07 0
1.01169 -6.91321e-08 0
1.01169 -3.75232e-08 0
1.01169 -6.21047e-09 0
1.01169 2.47751e-08 0
1.01169 5.54027e-08 0
1.01169 8.56419e-08 0
1.01169 1.15463e-07 0
1.01169 1.44836e-07 0
1.01169 1.73732e-07 0
1.01169 2.02124e-07 0
1.01169 2.29983e-07 0
1.01169 2.57283e-07 0
1.01169 2.83998e-07 0
1.0117 3.10101e-07 0
1.0117 3.35568e-07 0
1.0117 3.60375e-07 0
1.0117 3.84499e-07 0
1.0117 4.07916e-07 0
1.0117 4.30606e-07 0
1.0117 4.52547e-07 0
1.0117 4.73719e-07 0
1.0117 4.94102e-07 0
1.0117 5.1368e-07 0
1.0117 5.32433e-07 0
1.0117 5.50346e-07 0
1.0117 5.67402e-07 0
1.0117 5.83587e-07 0
1.0117 5.98887e-07 0
1.0117 6.13289e-07 0
1.0117 6.2678e-07 0
1.0117 6.3935e-07 0
1.01171 6.50988e-07 0
1.01171 6.61684e-07 0
1.01171 6.71425e-07 0
1.01171 6.80174e-07 0
1.01171 6.87762e-07 0
1.01171 6.93304e-07 0
1.01171 6.92111e-07 0
1.01171 6.59427e-07 0
1.01171 4.6534e-07 0
1.01171 -5.63495e-07 0
1.0117 -5.81563e-06 0
1.01163 -3.10992e-05 0
1.01128 -0.000134977 0
1.01128 -0.00042274 0
1 -0.00042274 0
1 1.00357e-06 0
1.0075 -1.00357e-06 0
1.0107 -2.35061e-06 0
1.01152 -2.03599e-06 0
1.0117 -1.66099e-06 0
1.01173 -1.48131e-06 0
1.01174 -1.40267e-06 0
1.01174 -1.3656e-06 0
1.01174 -1.34479e-06 0
1.01174 -1.32992e-06 0
1.01173 -1.31682e-06 0
1.01173 -1.30382e-06 0
1.01173 -1.29029e-06 0
1.01173 -1.27596e-06 0
1.01173 -1.26076e-06 0
1.01173 -1.24464e-06 0
1.01173 -1.22763e-06 0
1.01172 -1.20971e-06 0
1.01172 -1.19092e-06 0
1.01172 -1.17126e-06 0
1.01172 -1.15076e-06 0
1.01172 -1.12944e-06 0
1.01172 -1.10731e-06 0
1.01172 -1.08441e-06 0
1.01172 -1.06075e-06 0
1.01171 -1.03636e-06 0
1.01171 -1.01126e-06 0
1.01171 -9.85484e-07 0
1.01171 -9.59049e-07 0
1.01171 -9.31984e-07 0
1.01171 -9.04318e-07 0
1.01171 -8.76077e-07 0
1.01171 -8.47292e-07 0
1.01171 -8.1799e-07 0
1.0117 -7.88202e-07 0
1.0117 -7.57958e-07 0
1.0117 -7.27288e-07 0
1.0117 -6.96225e-07 0
1.0117 -6.64799e-07 0
1.0117 -6.33043e-07 0
1.0117 -6.00989e-07 0
1.0117 -5.68669e-07 0
1.0117 -5.36118e-07 0
1.0117 -5.03367e-07 0
1.0117 -4.70451e-07 0
1.0117 -4.37402e-07 0
1.0117 -4.04256e-07 0
1.0117 -3.71045e-07 0
1.0117 -3.37803e-07 0
1.0117 -3.04566e-07 0
1.01169 -2.71367e-07 0
1.01169 -2.38239e-07 0
1.01169 -2.05215e-07 0
1.01169 -1.72329e-07 0
1.01169 -1.39614e-07 0
1.01169 -1.07104e-07 0
1.01169 -7.4831e-08 0
1.01169 -4.28283e-08 0
1.01169 -1.11276e-08 0
1.01169 2.02396e-08 0
1.01169 5.12419e-08 0
1.01169 8.18485e-08 0
1.01169 1.12029e-07 0
1.01169 1.41754e-07 0
1.01169 1.70994e-07 0
1.01169 1.9972e-07 0
1.01169 2.27906e-07 0
1.01169 2.55522e-07 0
1.01169 2.82544e-07 0
1.0117 3.08944e-07 0
1.0117 3.34698e-07 0
1.0117 3.59782e-07 0
1.0117 3.84172e-07 0
1.0117 4.07846e-07 0
1.0117 4.30781e-07 0
1.0117 4.52956e-07 0
1.0117 4.74351e-07 0
1.0117 4.94947e-07 0
1.0117 5.14725e-07 0
1.0117 5.33669e-07 0
1.0117 5.5176e-07 0
1.0117 5.68983e-07 0
1.0117 5.85324e-07 0
1.0117 6.00769e-07 0
1.0117 6.15303e-07 0
1.0117 6.28916e-07 0
1.0117 6.41597e-07 0
1.01171 6.53334e-07 0
1.01171 6.64119e-07 0
1.01171 6.73946e-07 0
1.01171 6.8281e-07 0
1.01171 6.90713e-07 0
1.01171 6.97671e-07 0
1.01171 7.03733e-07 0
1.01171 7.09034e-07 0
1.01171 7.13925e-07 0
1.01171 7.19252e-07 0
1.01169 7.2673e-07 0
1.01159 7.41451e-07 0
1.01119 7.75727e-07 0
1.01119 8.49361e-07 0
1 8.49361e-07 0
1 0.00250014 0
1.0075 -0.00250014 0
1.0107 -0.00107129 0
1.01152 -0.000277185 0
1.0117 -6.06405e-05 0
1.01173 -1.3207e-05 0
1.01174 -3.67437e-06 0
1.01174 -1.81439e-06 0
1.01174 -1.44743e-06 0
1.01174 -1.36718e-06 0
1.01173 -1.34167e-06 0
1.01173 -1.32622e-06 0
1.01173 -1.31207e-06 0
1.01173 -1.29746e-06 0
1.01173 -1.28203e-06 0
1.01173 -1.26569e-06 0
1.01173 -1.24843e-06 0
1.01172 -1.23027e-06 0
1.01172 -1.21122e-06 0
1.01172 -1.19129e-06 0
1.01172 -1.17051e-06 0
1.01172 -1.14889e-06 0
1.01172 -1.12647e-06 0
1.01172 -1.10326e-06 0
1.01172 -1.07928e-06 0
1.01171 -1.05456e-06 0
1.01171 -1.02912e-06 0
1.01171 -1.003e-06 0
1.01171 -9.76207e-07 0
1.01171 -9.4878e-07 0
1.01171 -9.20744e-07 0
1.01171 -8.92127e-07 0
1.01171 -8.62958e-07 0
1.01171 -8.33267e-07 0
1.0117 -8.03084e-07 0
1.0117 -7.72439e-07 0
1.0117 -7.41364e-07 0
1.0117 -7.09891e-07 0
1.0117 -6.78052e-07 0
1.0117 -6.45878e-07 0
1.0117 -6.13404e-07 0
1.0117 -5.80662e-07 0
1.0117 -5.47685e-07 0
1.0117 -5.14508e-07 0
1.0117 -4.81165e-07 0
1.0117 -4.47689e-07 0
1.0117 -4.14115e-07 0
1.0117 -3.80477e-07 0
1.0117 -3.46807e-07 0
1.0117 -3.13149e-07 0
1.01169 -2.79528e-07 0
1.01169 -2.45984e-07 0
1.01169 -2.12547e-07 0
1.01169 -1.79248e-07 0
1.01169 -1.46124e-07 0
1.01169 -1.1321e-07 0
1.01169 -8.05384e-08 0
1.01169 -4.8143e-08 0
1.01169 -1.60554e-08 0
1.01169 1.56923e-08 0
1.01169 4.70683e-08 0
1.01169 7.80413e-08 0
1.01169 1.08581e-07 0
1.01169 1.38656e-07 0
1.01169 1.68239e-07 0
1.01169 1.97299e-07 0
1.01169 2.25809e-07 0
1.01169 2.53742e-07 0
1.01169 2.81069e-07 0
1.0117 3.07766e-07 0
1.0117 3.33807e-07 0
1.0117 3.59167e-07 0
1.0117 3.83823e-07 0
1.0117 4.07751e-07 0
1.0117 4.3093e-07 0
1.0117 4.53339e-07 0
1.0117 4.74957e-07 0
1.0117 4.95765e-07 0
1.0117 5.15744e-07 0
1.0117 5.34876e-07 0
1.0117 5.53145e-07 0
1.0117 5.70536e-07 0
1.0117 5.87032e-07 0
1.0117 6.0262e-07 0
1.0117 6.17287e-07 0
1.0117 6.31022e-07 0
1.0117 6.43812e-07 0
1.01171 6.55648e-07 0
1.01171 6.66523e-07 0
1.01171 6.76435e-07 0
1.01171 6.85413e-07 0
1.01171 6.93629e-07 0
1.01171 7.01996e-07 0
1.01171 7.15297e-07 0
1.01171 7.58544e-07 0
1.01171 9.62319e-07 0
1.01171 2.00162e-06 0
1.01169 7.26814e-06 0
1.01159 3.25798e-05 0
1.01119 0.000136524 0
1.01119 0.000424436 0
1 0.000424436 0
1 0.00521584 0
1.00815 -0.00521584 0
1.01098 -0.00201544 0
1.0116 -0.000484752 0
1.01172 -0.000100693 0
1.01174 -2.07178e-05 0
1.01174 -5.09334e-06 0
1.01174 -2.09714e-06 0
1.01174 -1.51805e-06 0
1.01174 -1.39822e-06 0
1.01173 -1.36527e-06 0
1.01173 -1.34832e-06 0
1.01173 -1.33375e-06 0
1.01173 -1.31891e-06 0
1.01173 -1.30326e-06 0
1.01173 -1.2867e-06 0
1.01173 -1.26921e-06 0
1.01172 -1.2508e-06 0
1.01172 -1.23148e-06 0
1.01172 -1.21129e-06 0
1.01172 -1.19023e-06 0
1.01172 -1.16832e-06 0
1.01172 -1.1456e-06 0
1.01172 -1.12207e-06 0
1.01172 -1.09778e-06 0
1.01171 -1.07273e-06 0
1.01171 -1.04696e-06 0
1.01171 -1.02049e-06 0
1.01171 -9.93342e-07 0
1.01171 -9.65554e-07 0
1.01171 -9.3715e-07 0
1.01171 -9.08157e-07 0
1.01171 -8.78606e-07 0
1.01171 -8.48527e-07 0
1.0117 -8.17949e-07 0
1.0117 -7.86905e-07 0
1.0117 -7.55426e-07 0
1.0117 -7.23544e-07 0
1.0117 -6.91292e-07 0
1.0117 -6.58703e-07 0
1.0117 -6.25809e-07 0
1.0117 -5.92646e-07 0
1.0117 -5.59246e-07 0
1.0117 -5.25644e-07 0
1.0117 -4.91874e-07 0
1.0117 -4.57971e-07 0
1.0117 -4.23973e-07 0
1.0117 -3.89908e-07 0
1.0117 -3.55811e-07 0
1.0117 -3.21734e-07 0
1.01169 -2.87691e-07 0
1.01169 -2.53734e-07 0
1.01169 -2.19884e-07 0
1.01169 -1.86172e-07 0
1.01169 -1.52641e-07 0
1.01169 -1.19324e-07 0
1.01169 -8.62549e-08 0
1.01169 -5.34681e-08 0
1.01169 -2.09947e-08 0
1.01169 1.11325e-08 0
1.01169 4.28811e-08 0
1.01169 7.42195e-08 0
1.01169 1.05117e-07 0
1.01169 1.35542e-07 0
1.01169 1.65466e-07 0
1.01169 1.94859e-07 0
1.01169 2.23693e-07 0
1.01169 2.5194e-07 0
1.01169 2.79573e-07 0
1.0117 3.06565e-07 0
1.0117 3.32891e-07 0
1.0117 3.58527e-07 0
1.0117 3.83448e-07 0
1.0117 4.07631e-07 0
1.0117 4.31054e-07 0
1.0117 4.53695e-07 0
1.0117 4.75535e-07 0
1.0117 4.96554e-07 0
1.0117 5.16733e-07 0
1.0117 5.36054e-07 0
1.0117 5.545e-07 0
1.0117 5.72056e-07 0
1.0117 5.88707e-07 0
1.0117 6.04439e-07 0
1.0117 6.19239e-07 0
1.0117 6.33094e-07 0
1.0117 6.45994e-07 0
1.01171 6.57928e-07 0
1.01171 6.68891e-07 0
1.01171 6.78884e-07 0
1.01171 6.87956e-07 0
1.01171 6.96382e-07 0
1.01171 7.05627e-07 0
1.01171 7.23387e-07 0
1.01171 7.9007e-07 0
1.01171 1.11773e-06 0
1.01171 2.81412e-06 0
1.0117 1.15836e-05 0
1.01163 5.56022e-05 0
1.01128 0.000254217 0
1.01128 0.000847385 0
1 0.000847385 0
1 0.0084052 0
1.00957 -0.0084052 0
1.0115 -0.00266127 0
1.01172 -0.000557929 0
1.01174 -0.000106691 0
1.01174 -2.10732e-05 0
1.01173 -5.10923e-06 0
1.01173 -2.11123e-06 0