# vtk DataFile Version 2.0
FlowField
ASCII
DATASET STRUCTURED_GRID
DIMENSIONS 102 12 1 
POINTS 1224 double
0 0 0
0.3 0 0
0.6 0 0
0.9 0 0
1.2 0 0
1.5 0 0
1.8 0 0
2.1 0 0
2.4 0 0
2.7 0 0
3 0 0
3.3 0 0
3.6 0 0
3.9 0 0
4.2 0 0
4.5 0 0
4.8 0 0
5.1 0 0
5.4 0 0
5.7 0 0
6 0 0
6.3 0 0
6.6 0 0
6.9 0 0
7.2 0 0
7.5 0 0
7.8 0 0
8.1 0 0
8.4 0 0
8.7 0 0
9 0 0
9.3 0 0
9.6 0 0
9.9 0 0
10.2 0 0
10.5 0 0
10.8 0 0
11.1 0 0
11.4 0 0
11.7 0 0
12 0 0
12.3 0 0
12.6 0 0
12.9 0 0
13.2 0 0
13.5 0 0
13.8 0 0
14.1 0 0
14.4 0 0
14.7 0 0
15 0 0
15.3 0 0
15.6 0 0
15.9 0 0
16.2 0 0
16.5 0 0
16.8 0 0
17.1 0 0
17.4 0 0
17.7 0 0
18 0 0
18.3 0 0
18.6 0 0
18.9 0 0
19.2 0 0
19.5 0 0
19.8 0 0
20.1 0 0
20.4 0 0
20.7 0 0
21 0 0
21.3 0 0
21.6 0 0
21.9 0 0
22.2 0 0
22.5 0 0
22.8 0 0
23.1 0 0
23.4 0 0
23.7 0 0
24 0 0
24.3 0 0
24.6 0 0
24.9 0 0
25.2 0 0
25.5 0 0
25.8 0 0
26.1 0 0
26.4 0 0
26.7 0 0
27 0 0
27.3 0 0
27.6 0 0
27.9 0 0
28.2 0 0
28.5 0 0
28.8 0 0
29.1 0 0
29.4 0 0
29.7 0 0
30 0 0
30.3 0 0
0 0.1 0
0.3 0.1 0
0.6 0.1 0
0.9 0.1 0
1.2 0.1 0
1.5 0.1 0
1.8 0.1 0
2.1 0.1 0
2.4 0.1 0
2.7 0.1 0
3 0.1 0
3.3 0.1 0
3.6 0.1 0
3.9 0.1 0
4.2 0.1 0
4.5 0.1 0
4.8 0.1 0
5.1 0.1 0
5.4 0.1 0
5.7 0.1 0
6 0.1 0
6.3 0.1 0
6.6 0.1 0
6.9 0.1 0
7.2 0.1 0
7.5 0.1 0
7.8 0.1 0
8.1 0.1 0
8.4 0.1 0
8.7 0.1 0
9 0.1 0
9.3 0.1 0
9.6 0.1 0
9.9 0.1 0
10.2 0.1 0
10.5 0.1 0
10.8 0.1 0
11.1 0.1 0
11.4 0.1 0
11.7 0.1 0
12 0.1 0
12.3 0.1 0
12.6 0.1 0
12.9 0.1 0
13.2 0.1 0
13.5 0.1 0
13.8 0.1 0
14.1 0.1 0
14.4 0.1 0
14.7 0.1 0
15 0.1 0
15.3 0.1 0
15.6 0.1 0
15.9 0.1 0
16.2 0.1 0
16.5 0.1 0
16.8 0.1 0
17.1 0.1 0
17.4 0.1 0
17.7 0.1 0
18 0.1 0
18.3 0.1 0
18.6 0.1 0
18.9 0.1 0
19.2 0.1 0
19.5 0.1 0
19.8 0.1 0
20.1 0.1 0
20.4 0.1 0
20.7 0.1 0
21 0.1 0
21.3 0.1 0
21.6 0.1 0
21.9 0.1 0
22.2 0.1 0
22.5 0.1 0
22.8 0.1 0
23.1 0.1 0
23.4 0.1 0
23.7 0.1 0
24 0.1 0
24.3 0.1 0
24.6 0.1 0
24.9 0.1 0
25.2 0.1 0
25.5 0.1 0
25.8 0.1 0
26.1 0.1 0
26.4 0.1 0
26.7 0.1 0
27 0.1 0
27.3 0.1 0
27.6 0.1 0
27.9 0.1 0
28.2 0.1 0
28.5 0.1 0
28.8 0.1 0
29.1 0.1 0
29.4 0.1 0
29.7 0.1 0
30 0.1 0
30.3 0.1 0
0 0.2 0
0.3 0.2 0
0.6 0.2 0
0.9 0.2 0
1.2 0.2 0
1.5 0.2 0
1.8 0.2 0
2.1 0.2 0
2.4 0.2 0
2.7 0.2 0
3 0.2 0
3.3 0.2 0
3.6 0.2 0
3.9 0.2 0
4.2 0.2 0
4.5 0.2 0
4.8 0.2 0
5.1 0.2 0
5.4 0.2 0
5.7 0.2 0
6 0.2 0
6.3 0.2 0
6.6 0.2 0
6.9 0.2 0
7.2 0.2 0
7.5 0.2 0
7.8 0.2 0
8.1 0.2 0
8.4 0.2 0
8.7 0.2 0
9 0.2 0
9.3 0.2 0
9.6 0.2 0
9.9 0.2 0
10.2 0.2 0
10.5 0.2 0
10.8 0.2 0
11.1 0.2 0
11.4 0.2 0
11.7 0.2 0
12 0.2 0
12.3 0.2 0
12.6 0.2 0
12.9 0.2 0
13.2 0.2 0
13.5 0.2 0
13.8 0.2 0
14.1 0.2 0
14.4 0.2 0
14.7 0.2 0
15 0.2 0
15.3 0.2 0
15.6 0.2 0
15.9 0.2 0
16.2 0.2 0
16.5 0.2 0
16.8 0.2 0
17.1 0.2 0
17.4 0.2 0
17.7 0.2 0
18 0.2 0
18.3 0.2 0
18.6 0.2 0
18.9 0.2 0
19.2 0.2 0
19.5 0.2 0
19.8 0.2 0
20.1 0.2 0
20.4 0.2 0
20.7 0.2 0
21 0.2 0
21.3 0.2 0
21.6 0.2 0
21.9 0.2 0
22.2 0.2 0
22.5 0.2 0
22.8 0.2 0
23.1 0.2 0
23.4 0.2 0
23.7 0.2 0
24 0.2 0
24.3 0.2 0
24.6 0.2 0
24.9 0.2 0
25.2 0.2 0
25.5 0.2 0
25.8 0.2 0
26.1 0.2 0
26.4 0.2 0
26.7 0.2 0
27 0.2 0
27.3 0.2 0
27.6 0.2 0
27.9 0.2 0
28.2 0.2 0
28.5 0.2 0
28.8 0.2 0
29.1 0.2 0
29.4 0.2 0
29.7 0.2 0
30 0.2 0
30.3 0.2 0
0 0.3 0
0.3 0.3 0
0.6 0.3 0
0.9 0.3 0
1.2 0.3 0
1.5 0.3 0
1.8 0.3 0
2.1 0.3 0
2.4 0.3 0
2.7 0.3 0
3 0.3 0
3.3 0.3 0
3.6 0.3 0
3.9 0.3 0
4.2 0.3 0
4.5 0.3 0
4.8 0.3 0
5.1 0.3 0
5.4 0.3 0
5.7 0.3 0
6 0.3 0
6.3 0.3 0
6.6 0.3 0
6.9 0.3 0
7.2 0.3 0
7.5 0.3 0
7.8 0.3 0
8.1 0.3 0
8.4 0.3 0
8.7 0.3 0
9 0.3 0
9.3 0.3 0
9.6 0.3 0
9.9 0.3 0
10.2 0.3 0
10.5 0.3 0
10.8 0.3 0
11.1 0.3 0
11.4 0.3 0
11.7 0.3 0
12 0.3 0
12.3 0.3 0
12.6 0.3 0
12.9 0.3 0
13.2 0.3 0
13.5 0.3 0
13.8 0.3 0
14.1 0.3 0
14.4 0.3 0
14.7 0.3 0
15 0.3 0
15.3 0.3 0
15.6 0.3 0
15.9 0.3 0
16.2 0.3 0
16.5 0.3 0
16.8 0.3 0
17.1 0.3 0
17.4 0.3 0
17.7 0.3 0
18 0.3 0
18.3 0.3 0
18.6 0.3 0
18.9 0.3 0
19.2 0.3 0
19.5 0.3 0
19.8 0.3 0
20.1 0.3 0
20.4 0.3 0
20.7 0.3 0
21 0.3 0
21.3 0.3 0
21.6 0.3 0
21.9 0.3 0
22.2 0.3 0
22.5 0.3 0
22.8 0.3 0
23.1 0.3 0
23.4 0.3 0
23.7 0.3 0
24 0.3 0
24.3 0.3 0
24.6 0.3 0
24.9 0.3 0
25.2 0.3 0
25.5 0.3 0
25.8 0.3 0
26.1 0.3 0
26.4 0.3 0
26.7 0.3 0
27 0.3 0
27.3 0.3 0
27.6 0.3 0
27.9 0.3 0
28.2 0.3 0
28.5 0.3 0
28.8 0.3 0
29.1 0.3 0
29.4 0.3 0
29.7 0.3 0
30 0.3 0
30.3 0.3 0
0 0.4 0
0.3 0.4 0
0.6 0.4 0
0.9 0.4 0
1.2 0.4 0
1.5 0.4 0
1.8 0.4 0
2.1 0.4 0
2.4 0.4 0
2.7 0.4 0
3 0.4 0
3.3 0.4 0
3.6 0.4 0
3.9 0.4 0
4.2 0.4 0
4.5 0.4 0
4.8 0.4 0
5.1 0.4 0
5.4 0.4 0
5.7 0.4 0
6 0.4 0
6.3 0.4 0
6.6 0.4 0
6.9 0.4 0
7.2 0.4 0
7.5 0.4 0
7.8 0.4 0
8.1 0.4 0
8.4 0.4 0
8.7 0.4 0
9 0.4 0
9.3 0.4 0
9.6 0.4 0
9.9 0.4 0
10.2 0.4 0
10.5 0.4 0
10.8 0.4 0
11.1 0.4 0
11.4 0.4 0
11.7 0.4 0
12 0.4 0
12.3 0.4 0
12.6 0.4 0
12.9 0.4 0
13.2 0.4 0
13.5 0.4 0
13.8 0.4 0
14.1 0.4 0
14.4 0.4 0
14.7 0.4 0
15 0.4 0
15.3 0.4 0
15.6 0.4 0
15.9 0.4 0
16.2 0.4 0
16.5 0.4 0
16.8 0.4 0
17.1 0.4 0
17.4 0.4 0
17.7 0.4 0
18 0.4 0
18.3 0.4 0
18.6 0.4 0
18.9 0.4 0
19.2 0.4 0
19.5 0.4 0
19.8 0.4 0
20.1 0.4 0
20.4 0.4 0
20.7 0.4 0
21 0.4 0
21.3 0.4 0
21.6 0.4 0
21.9 0.4 0
22.2 0.4 0
22.5 0.4 0
22.8 0.4 0
23.1 0.4 0
23.4 0.4 0
23.7 0.4 0
24 0.4 0
24.3 0.4 0
24.6 0.4 0
24.9 0.4 0
25.2 0.4 0
25.5 0.4 0
25.8 0.4 0
26.1 0.4 0
26.4 0.4 0
26.7 0.4 0
27 0.4 0
27.3 0.4 0
27.6 0.4 0
27.9 0.4 0
28.2 0.4 0
28.5 0.4 0
28.8 0.4 0
29.1 0.4 0
29.4 0.4 0
29.7 0.4 0
30 0.4 0
30.3 0.4 0
0 0.5 0
0.3 0.5 0
0.6 0.5 0
0.9 0.5 0
1.2 0.5 0
1.5 0.5 0
1.8 0.5 0
2.1 0.5 0
2.4 0.5 0
2.7 0.5 0
3 0.5 0
3.3 0.5 0
3.6 0.5 0
3.9 0.5 0
4.2 0.5 0
4.5 0.5 0
4.8 0.5 0
5.1 0.5 0
5.4 0.5 0
5.7 0.5 0
6 0.5 0
6.3 0.5 0
6.6 0.5 0
6.9 0.5 0
7.2 0.5 0
7.5 0.5 0
7.8 0.5 0
8.1 0.5 0
8.4 0.5 0
8.7 0.5 0
9 0.5 0
9.3 0.5 0
9.6 0.5 0
9.9 0.5 0
10.2 0.5 0
10.5 0.5 0
10.8 0.5 0
11.1 0.5 0
11.4 0.5 0
11.7 0.5 0
12 0.5 0
12.3 0.5 0
12.6 0.5 0
12.9 0.5 0
13.2 0.5 0
13.5 0.5 0
13.8 0.5 0
14.1 0.5 0
14.4 0.5 0
14.7 0.5 0
15 0.5 0
15.3 0.5 0
15.6 0.5 0
15.9 0.5 0
16.2 0.5 0
16.5 0.5 0
16.8 0.5 0
17.1 0.5 0
17.4 0.5 0
17.7 0.5 0
18 0.5 0
18.3 0.5 0
18.6 0.5 0
18.9 0.5 0
19.2 0.5 0
19.5 0.5 0
19.8 0.5 0
20.1 0.5 0
20.4 0.5 0
20.7 0.5 0
21 0.5 0
21.3 0.5 0
21.6 0.5 0
21.9 0.5 0
22.2 0.5 0
22.5 0.5 0
22.8 0.5 0
23.1 0.5 0
23.4 0.5 0
23.7 0.5 0
24 0.5 0
24.3 0.5 0
24.6 0.5 0
24.9 0.5 0
25.2 0.5 0
25.5 0.5 0
25.8 0.5 0
26.1 0.5 0
26.4 0.5 0
26.7 0.5 0
27 0.5 0
27.3 0.5 0
27.6 0.5 0
27.9 0.5 0
28.2 0.5 0
28.5 0.5 0
28.8 0.5 0
29.1 0.5 0
29.4 0.5 0
29.7 0.5 0
30 0.5 0
30.3 0.5 0
0 0.6 0
0.3 0.6 0
0.6 0.6 0
0.9 0.6 0
1.2 0.6 0
1.5 0.6 0
1.8 0.6 0
2.1 0.6 0
2.4 0.6 0
2.7 0.6 0
3 0.6 0
3.3 0.6 0
3.6 0.6 0
3.9 0.6 0
4.2 0.6 0
4.5 0.6 0
4.8 0.6 0
5.1 0.6 0
5.4 0.6 0
5.7 0.6 0
6 0.6 0
6.3 0.6 0
6.6 0.6 0
6.9 0.6 0
7.2 0.6 0
7.5 0.6 0
7.8 0.6 0
8.1 0.6 0
8.4 0.6 0
8.7 0.6 0
9 0.6 0
9.3 0.6 0
9.6 0.6 0
9.9 0.6 0
10.2 0.6 0
10.5 0.6 0
10.8 0.6 0
11.1 0.6 0
11.4 0.6 0
11.7 0.6 0
12 0.6 0
12.3 0.6 0
12.6 0.6 0
12.9 0.6 0
13.2 0.6 0
13.5 0.6 0
13.8 0.6 0
14.1 0.6 0
14.4 0.6 0
14.7 0.6 0
15 0.6 0
15.3 0.6 0
15.6 0.6 0
15.9 0.6 0
16.2 0.6 0
16.5 0.6 0
16.8 0.6 0
17.1 0.6 0
17.4 0.6 0
17.7 0.6 0
18 0.6 0
18.3 0.6 0
18.6 0.6 0
18.9 0.6 0
19.2 0.6 0
19.5 0.6 0
19.8 0.6 0
20.1 0.6 0
20.4 0.6 0
20.7 0.6 0
21 0.6 0
21.3 0.6 0
21.6 0.6 0
21.9 0.6 0
22.2 0.6 0
22.5 0.6 0
22.8 0.6 0
23.1 0.6 0
23.4 0.6 0
23.7 0.6 0
24 0.6 0
24.3 0.6 0
24.6 0.6 0
24.9 0.6 0
25.2 0.6 0
25.5 0.6 0
25.8 0.6 0
26.1 0.6 0
26.4 0.6 0
26.7 0.6 0
27 0.6 0
27.3 0.6 0
27.6 0.6 0
27.9 0.6 0
28.2 0.6 0
28.5 0.6 0
28.8 0.6 0
29.1 0.6 0
29.4 0.6 0
29.7 0.6 0
30 0.6 0
30.3 0.6 0
0 0.7 0
0.3 0.7 0
0.6 0.7 0
0.9 0.7 0
1.2 0.7 0
1.5 0.7 0
1.8 0.7 0
2.1 0.7 0
2.4 0.7 0
2.7 0.7 0
3 0.7 0
3.3 0.7 0
3.6 0.7 0
3.9 0.7 0
4.2 0.7 0
4.5 0.7 0
4.8 0.7 0
5.1 0.7 0
5.4 0.7 0
5.7 0.7 0
6 0.7 0
6.3 0.7 0
6.6 0.7 0
6.9 0.7 0
7.2 0.7 0
7.5 0.7 0
7.8 0.7 0
8.1 0.7 0
8.4 0.7 0
8.7 0.7 0
9 0.7 0
9.3 0.7 0
9.6 0.7 0
9.9 0.7 0
10.2 0.7 0
10.5 0.7 0
10.8 0.7 0
11.1 0.7 0
11.4 0.7 0
11.7 0.7 0
12 0.7 0
12.3 0.7 0
12.6 0.7 0
12.9 0.7 0
13.2 0.7 0
13.5 0.7 0
13.8 0.7 0
14.1 0.7 0
14.4 0.7 0
14.7 0.7 0
15 0.7 0
15.3 0.7 0
15.6 0.7 0
15.9 0.7 0
16.2 0.7 0
16.5 0.7 0
16.8 0.7 0
17.1 0.7 0
17.4 0.7 0
17.7 0.7 0
18 0.7 0
18.3 0.7 0
18.6 0.7 0
18.9 0.7 0
19.2 0.7 0
19.5 0.7 0
19.8 0.7 0
20.1 0.7 0
20.4 0.7 0
20.7 0.7 0
21 0.7 0
21.3 0.7 0
21.6 0.7 0
21.9 0.7 0
22.2 0.7 0
22.5 0.7 0
22.8 0.7 0
23.1 0.7 0
23.4 0.7 0
23.7 0.7 0
24 0.7 0
24.3 0.7 0
24.6 0.7 0
24.9 0.7 0
25.2 0.7 0
25.5 0.7 0
25.8 0.7 0
26.1 0.7 0
26.4 0.7 0
26.7 0.7 0
27 0.7 0
27.3 0.7 0
27.6 0.7 0
27.9 0.7 0
28.2 0.7 0
28.5 0.7 0
28.8 0.7 0
29.1 0.7 0
29.4 0.7 0
29.7 0.7 0
30 0.7 0
30.3 0.7 0
0 0.8 0
0.3 0.8 0
0.6 0.8 0
0.9 0.8 0
1.2 0.8 0
1.5 0.8 0
1.8 0.8 0
2.1 0.8 0
2.4 0.8 0
2.7 0.8 0
3 0.8 0
3.3 0.8 0
3.6 0.8 0
3.9 0.8 0
4.2 0.8 0
4.5 0.8 0
4.8 0.8 0
5.1 0.8 0
5.4 0.8 0
5.7 0.8 0
6 0.8 0
6.3 0.8 0
6.6 0.8 0
6.9 0.8 0
7.2 0.8 0
7.5 0.8 0
7.8 0.8 0
8.1 0.8 0
8.4 0.8 0
8.7 0.8 0
9 0.8 0
9.3 0.8 0
9.6 0.8 0
9.9 0.8 0
10.2 0.8 0
10.5 0.8 0
10.8 0.8 0
11.1 0.8 0
11.4 0.8 0
11.7 0.8 0
12 0.8 0
12.3 0.8 0
12.6 0.8 0
12.9 0.8 0
13.2 0.8 0
13.5 0.8 0
13.8 0.8 0
14.1 0.8 0
14.4 0.8 0
14.7 0.8 0
15 0.8 0
15.3 0.8 0
15.6 0.8 0
15.9 0.8 0
16.2 0.8 0
16.5 0.8 0
16.8 0.8 0
17.1 0.8 0
17.4 0.8 0
17.7 0.8 0
18 0.8 0
18.3 0.8 0
18.6 0.8 0
18.9 0.8 0
19.2 0.8 0
19.5 0.8 0
19.8 0.8 0
20.1 0.8 0
20.4 0.8 0
20.7 0.8 0
21 0.8 0
21.3 0.8 0
21.6 0.8 0
21.9 0.8 0
22.2 0.8 0
22.5 0.8 0
22.8 0.8 0
23.1 0.8 0
23.4 0.8 0
23.7 0.8 0
24 0.8 0
24.3 0.8 0
24.6 0.8 0
24.9 0.8 0
25.2 0.8 0
25.5 0.8 0
25.8 0.8 0
26.1 0.8 0
26.4 0.8 0
26.7 0.8 0
27 0.8 0
27.3 0.8 0
27.6 0.8 0
27.9 0.8 0
28.2 0.8 0
28.5 0.8 0
28.8 0.8 0
29.1 0.8 0
29.4 0.8 0
29.7 0.8 0
30 0.8 0
30.3 0.8 0
0 0.9 0
0.3 0.9 0
0.6 0.9 0
0.9 0.9 0
1.2 0.9 0
1.5 0.9 0
1.8 0.9 0
2.1 0.9 0
2.4 0.9 0
2.7 0.9 0
3 0.9 0
3.3 0.9 0
3.6 0.9 0
3.9 0.9 0
4.2 0.9 0
4.5 0.9 0
4.8 0.9 0
5.1 0.9 0
5.4 0.9 0
5.7 0.9 0
6 0.9 0
6.3 0.9 0
6.6 0.9 0
6.9 0.9 0
7.2 0.9 0
7.5 0.9 0
7.8 0.9 0
8.1 0.9 0
8.4 0.9 0
8.7 0.9 0
9 0.9 0
9.3 0.9 0
9.6 0.9 0
9.9 0.9 0
10.2 0.9 0
10.5 0.9 0
10.8 0.9 0
11.1 0.9 0
11.4 0.9 0
11.7 0.9 0
12 0.9 0
12.3 0.9 0
12.6 0.9 0
12.9 0.9 0
13.2 0.9 0
13.5 0.9 0
13.8 0.9 0
14.1 0.9 0
14.4 0.9 0
14.7 0.9 0
15 0.9 0
15.3 0.9 0
15.6 0.9 0
15.9 0.9 0
16.2 0.9 0
16.5 0.9 0
16.8 0.9 0
17.1 0.9 0
17.4 0.9 0
17.7 0.9 0
18 0.9 0
18.3 0.9 0
18.6 0.9 0
18.9 0.9 0
19.2 0.9 0
19.5 0.9 0
19.8 0.9 0
20.1 0.9 0
20.4 0.9 0
20.7 0.9 0
21 0.9 0
21.3 0.9 0
21.6 0.9 0
21.9 0.9 0
22.2 0.9 0
22.5 0.9 0
22.8 0.9 0
23.1 0.9 0
23.4 0.9 0
23.7 0.9 0
24 0.9 0
24.3 0.9 0
24.6 0.9 0
24.9 0.9 0
25.2 0.9 0
25.5 0.9 0
25.8 0.9 0
26.1 0.9 0
26.4 0.9 0
26.7 0.9 0
27 0.9 0
27.3 0.9 0
27.6 0.9 0
27.9 0.9 0
28.2 0.9 0
28.5 0.9 0
28.8 0.9 0
29.1 0.9 0
29.4 0.9 0
29.7 0.9 0
30 0.9 0
30.3 0.9 0
0 1 0
0.3 1 0
0.6 1 0
0.9 1 0
1.2 1 0
1.5 1 0
1.8 1 0
2.1 1 0
2.4 1 0
2.7 1 0
3 1 0
3.3 1 0
3.6 1 0
3.9 1 0
4.2 1 0
4.5 1 0
4.8 1 0
5.1 1 0
5.4 1 0
5.7 1 0
6 1 0
6.3 1 0
6.6 1 0
6.9 1 0
7.2 1 0
7.5 1 0
7.8 1 0
8.1 1 0
8.4 1 0
8.7 1 0
9 1 0
9.3 1 0
9.6 1 0
9.9 1 0
10.2 1 0
10.5 1 0
10.8 1 0
11.1 1 0
11.4 1 0
11.7 1 0
12 1 0
12.3 1 0
12.6 1 0
12.9 1 0
13.2 1 0
13.5 1 0
13.8 1 0
14.1 1 0
14.4 1 0
14.7 1 0
15 1 0
15.3 1 0
15.6 1 0
15.9 1 0
16.2 1 0
16.5 1 0
16.8 1 0
17.1 1 0
17.4 1 0
17.7 1 0
18 1 0
18.3 1 0
18.6 1 0
18.9 1 0
19.2 1 0
19.5 1 0
19.8 1 0
20.1 1 0
20.4 1 0
20.7 1 0
21 1 0
21.3 1 0
21.6 1 0
21.9 1 0
22.2 1 0
22.5 1 0
22.8 1 0
23.1 1 0
23.4 1 0
23.7 1 0
24 1 0
24.3 1 0
24.6 1 0
24.9 1 0
25.2 1 0
25.5 1 0
25.8 1 0
26.1 1 0
26.4 1 0
26.7 1 0
27 1 0
27.3 1 0
27.6 1 0
27.9 1 0
28.2 1 0
28.5 1 0
28.8 1 0
29.1 1 0
29.4 1 0
29.7 1 0
30 1 0
30.3 1 0
0 1.1 0
0.3 1.1 0
0.6 1.1 0
0.9 1.1 0
1.2 1.1 0
1.5 1.1 0
1.8 1.1 0
2.1 1.1 0
2.4 1.1 0
2.7 1.1 0
3 1.1 0
3.3 1.1 0
3.6 1.1 0
3.9 1.1 0
4.2 1.1 0
4.5 1.1 0
4.8 1.1 0
5.1 1.1 0
5.4 1.1 0
5.7 1.1 0
6 1.1 0
6.3 1.1 0
6.6 1.1 0
6.9 1.1 0
7.2 1.1 0
7.5 1.1 0
7.8 1.1 0
8.1 1.1 0
8.4 1.1 0
8.7 1.1 0
9 1.1 0
9.3 1.1 0
9.6 1.1 0
9.9 1.1 0
10.2 1.1 0
10.5 1.1 0
10.8 1.1 0
11.1 1.1 0
11.4 1.1 0
11.7 1.1 0
12 1.1 0
12.3 1.1 0
12.6 1.1 0
12.9 1.1 0
13.2 1.1 0
13.5 1.1 0
13.8 1.1 0
14.1 1.1 0
14.4 1.1 0
14.7 1.1 0
15 1.1 0
15.3 1.1 0
15.6 1.1 0
15.9 1.1 0
16.2 1.1 0
16.5 1.1 0
16.8 1.1 0
17.1 1.1 0
17.4 1.1 0
17.7 1.1 0
18 1.1 0
18.3 1.1 0
18.6 1.1 0
18.9 1.1 0
19.2 1.1 0
19.5 1.1 0
19.8 1.1 0
20.1 1.1 0
20.4 1.1 0
20.7 1.1 0
21 1.1 0
21.3 1.1 0
21.6 1.1 0
21.9 1.1 0
22.2 1.1 0
22.5 1.1 0
22.8 1.1 0
23.1 1.1 0
23.4 1.1 0
23.7 1.1 0
24 1.1 0
24.3 1.1 0
24.6 1.1 0
24.9 1.1 0
25.2 1.1 0
25.5 1.1 0
25.8 1.1 0
26.1 1.1 0
26.4 1.1 0
26.7 1.1 0
27 1.1 0
27.3 1.1 0
27.6 1.1 0
27.9 1.1 0
28.2 1.1 0
28.5 1.1 0
28.8 1.1 0
29.1 1.1 0
29.4 1.1 0
29.7 1.1 0
30 1.1 0
30.3 1.1 0

POINT_DATA 1224

VECTORS velocity double
LOOKUP_TABLE default
-1 0 0
-0.892034 0 0
-0.805974 0 0
-0.763188 0 0
-0.747526 0 0
-0.743043 0 0
-0.742011 0 0
-0.74182 0 0
-0.741794 0 0
-0.741792 0 0
-0.741792 0 0
-0.741793 0 0
-0.741793 0 0
-0.741793 0 0
-0.741793 0 0
-0.741793 0 0
-0.741794 0 0
-0.741794 0 0
-0.741794 0 0
-0.741794 0 0
-0.741794 0 0
-0.741794 0 0
-0.741794 0 0
-0.741794 0 0
-0.741794 0 0
-0.741795 0 0
-0.741795 0 0
-0.741795 0 0
-0.741795 0 0
-0.741795 0 0
-0.741795 0 0
-0.741795 0 0
-0.741795 0 0
-0.741795 0 0
-0.741795 0 0
-0.741795 0 0
-0.741795 0 0
-0.741795 0 0
-0.741795 0 0
-0.741795 0 0
-0.741794 0 0
-0.741794 0 0
-0.741794 0 0
-0.741794 0 0
-0.741794 0 0
-0.741794 0 0
-0.741794 0 0
-0.741794 0 0
-0.741794 0 0
-0.741793 0 0
-0.741793 0 0
-0.741793 0 0
-0.741793 0 0
-0.741793 0 0
-0.741792 0 0
-0.741792 0 0
-0.741792 0 0
-0.741792 0 0
-0.741792 0 0
-0.741791 0 0
-0.741791 0 0
-0.741791 0 0
-0.74179 0 0
-0.74179 0 0
-0.74179 0 0
-0.74179 0 0
-0.741789 0 0
-0.741789 0 0
-0.741789 0 0
-0.741788 0 0
-0.741788 0 0
-0.741788 0 0
-0.741787 0 0
-0.741787 0 0
-0.741786 0 0
-0.741786 0 0
-0.741786 0 0
-0.741785 0 0
-0.741785 0 0
-0.741785 0 0
-0.741784 0 0
-0.741784 0 0
-0.741783 0 0
-0.741783 0 0
-0.741782 0 0
-0.741782 0 0
-0.741782 0 0
-0.741781 0 0
-0.741781 0 0
-0.74178 0 0
-0.74178 0 0
-0.741779 0 0
-0.741779 0 0
-0.741779 0 0
-0.741779 0 0
-0.74178 0 0
-0.741785 0 0
-0.741834 0 0
-0.74188 0 0
-0.743578 0 0
-0.743578 0 0
-1 0 0
1 -0.0359887 0
0.892034 0.0359887 0
0.805974 0.0286868 0
0.763188 0.0142619 0
0.747526 0.00522072 0
0.743043 0.00149416 0
0.742011 0.000344068 0
0.74182 6.35994e-05 0
0.741794 8.84074e-06 0
0.741792 5.99663e-07 0
0.741792 -1.7525e-07 0
0.741793 -1.25329e-07 0
0.741793 -8.04137e-08 0
0.741793 -6.7369e-08 0
0.741793 -6.50303e-08 0
0.741793 -6.53449e-08 0
0.741794 -6.62875e-08 0
0.741794 -6.74301e-08 0
0.741794 -6.86907e-08 0
0.741794 -7.0054e-08 0
0.741794 -7.15163e-08 0
0.741794 -7.30757e-08 0
0.741794 -7.47302e-08 0
0.741794 -7.64788e-08 0
0.741794 -7.83203e-08 0
0.741795 -8.02532e-08 0
0.741795 -8.22744e-08 0
0.741795 -8.43808e-08 0
0.741795 -8.65697e-08 0
0.741795 -8.88387e-08 0
0.741795 -9.1185e-08 0
0.741795 -9.36066e-08 0
0.741795 -9.61013e-08 0
0.741795 -9.86666e-08 0
0.741795 -1.013e-07 0
0.741795 -1.03999e-07 0
0.741795 -1.06762e-07 0
0.741795 -1.09589e-07 0
0.741795 -1.12476e-07 0
0.741795 -1.15418e-07 0
0.741794 -1.1841e-07 0
0.741794 -1.21447e-07 0
0.741794 -1.24529e-07 0
0.741794 -1.27654e-07 0
0.741794 -1.30819e-07 0
0.741794 -1.34024e-07 0
0.741794 -1.37267e-07 0
0.741794 -1.40542e-07 0
0.741794 -1.43833e-07 0
0.741793 -1.47182e-07 0
0.741793 -1.50578e-07 0
0.741793 -1.54018e-07 0
0.741793 -1.57489e-07 0
0.741793 -1.60953e-07 0
0.741792 -1.64391e-07 0
0.741792 -1.67818e-07 0
0.741792 -1.71243e-07 0
0.741792 -1.74672e-07 0
0.741792 -1.781e-07 0
0.741791 -1.81517e-07 0
0.741791 -1.84918e-07 0
0.741791 -1.88302e-07 0
0.74179 -1.91667e-07 0
0.74179 -1.95013e-07 0
0.74179 -1.98336e-07 0
0.74179 -2.01635e-07 0
0.741789 -2.04905e-07 0
0.741789 -2.08144e-07 0
0.741789 -2.11348e-07 0
0.741788 -2.14514e-07 0
0.741788 -2.17639e-07 0
0.741788 -2.2072e-07 0
0.741787 -2.23755e-07 0
0.741787 -2.26739e-07 0
0.741786 -2.29669e-07 0
0.741786 -2.32543e-07 0
0.741786 -2.35358e-07 0
0.741785 -2.38111e-07 0
0.741785 -2.40798e-07 0
0.741785 -2.43419e-07 0
0.741784 -2.45968e-07 0
0.741784 -2.48443e-07 0
0.741783 -2.50842e-07 0
0.741783 -2.5316e-07 0
0.741782 -2.55398e-07 0
0.741782 -2.57551e-07 0
0.741782 -2.59618e-07 0
0.741781 -2.61597e-07 0
0.741781 -2.63492e-07 0
0.74178 -2.65322e-07 0
0.74178 -2.67181e-07 0
0.741779 -2.69531e-07 0
0.741779 -2.74569e-07 0
0.741779 -2.93011e-07 0
0.741779 -3.72794e-07 0
0.74178 -8.02043e-07 0
0.741785 -2.15161e-06 0
0.741834 -1.67311e-05 0
0.74188 -1.57977e-05 0
0.743578 -0.000566467 0
0.743578 -0.000997322 0
1 -0.000997322 0
1 -0.0266906 0
1.02789 0.0266906 0
1.03718 0.0255928 0
1.03968 0.0134283 0
1.04021 0.00504371 0
1.04029 0.0014652 0
1.04031 0.000338729 0
1.04032 6.15219e-05 0
1.04032 7.84199e-06 0
1.04032 2.02051e-07 0
1.04032 -2.95374e-07 0
1.04032 -1.56832e-07 0
1.04032 -8.56143e-08 0
1.04032 -6.52705e-08 0
1.04032 -6.10461e-08 0
1.04032 -6.08656e-08 0
1.04032 -6.16415e-08 0
1.04032 -6.26936e-08 0
1.04032 -6.38851e-08 0
1.04032 -6.51896e-08 0
1.04032 -6.66014e-08 0
1.04032 -6.81181e-08 0
1.04032 -6.97379e-08 0
1.04032 -7.14593e-08 0
1.04032 -7.32804e-08 0
1.04032 -7.51997e-08 0
1.04032 -7.72156e-08 0
1.04032 -7.93267e-08 0
1.04032 -8.15299e-08 0
1.04032 -8.38213e-08 0
1.04032 -8.61969e-08 0
1.04032 -8.86548e-08 0
1.04032 -9.11929e-08 0
1.04032 -9.38091e-08 0
1.04032 -9.65006e-08 0
1.04032 -9.92652e-08 0
1.04032 -1.02101e-07 0
1.04032 -1.05004e-07 0
1.04032 -1.07971e-07 0
1.04032 -1.10998e-07 0
1.04032 -1.14083e-07 0
1.04032 -1.17223e-07 0
1.04032 -1.20417e-07 0
1.04032 -1.23662e-07 0
1.04032 -1.26953e-07 0
1.04032 -1.30288e-07 0
1.04032 -1.33663e-07 0
1.04032 -1.37072e-07 0
1.04032 -1.4052e-07 0
1.04032 -1.44006e-07 0
1.04032 -1.47519e-07 0
1.04032 -1.51055e-07 0
1.04032 -1.54602e-07 0
1.04032 -1.58157e-07 0
1.04032 -1.61725e-07 0
1.04032 -1.65311e-07 0
1.04032 -1.6891e-07 0
1.04032 -1.72515e-07 0
1.04032 -1.76122e-07 0
1.04032 -1.79725e-07 0
1.04032 -1.83322e-07 0
1.04032 -1.86913e-07 0
1.04031 -1.90493e-07 0
1.04031 -1.94058e-07 0
1.04031 -1.97606e-07 0
1.04031 -2.01132e-07 0
1.04031 -2.04632e-07 0
1.04031 -2.08105e-07 0
1.04031 -2.11545e-07 0
1.04031 -2.14951e-07 0
1.04031 -2.18318e-07 0
1.04031 -2.21644e-07 0
1.04031 -2.24924e-07 0
1.04031 -2.28156e-07 0
1.04031 -2.31336e-07 0
1.04031 -2.34462e-07 0
1.04031 -2.37529e-07 0
1.04031 -2.40535e-07 0
1.04031 -2.43477e-07 0
1.04031 -2.46351e-07 0
1.04031 -2.49155e-07 0
1.04031 -2.51884e-07 0
1.04031 -2.54537e-07 0
1.04031 -2.5711e-07 0
1.04031 -2.59601e-07 0
1.04031 -2.62007e-07 0
1.04031 -2.64326e-07 0
1.04031 -2.66557e-07 0
1.04031 -2.68705e-07 0
1.04031 -2.70802e-07 0
1.04031 -2.72992e-07 0
1.0403 -2.75973e-07 0
1.0403 -2.83055e-07 0
1.0403 -3.10139e-07 0
1.0403 -4.32307e-07 0
1.0403 -1.02761e-06 0
1.04031 -3.59239e-06 0
1.04032 -1.93727e-05 0
1.04044 -5.75839e-05 0
1.04039 -0.00055137 0
1.04039 -0.00095928 0
1 -0.00095928 0
1 -0.0160921 0
1.0318 0.0160921 0
1.05613 0.0174823 0
1.06698 0.00980935 0
1.07035 0.00392038 0
1.07109 0.00121884 0
1.07119 0.000305448 0
1.07119 6.19258e-05 0
1.07119 9.68552e-06 0
1.07118 8.89377e-07 0
1.07118 -1.07228e-07 0
1.07118 -1.03214e-07 0
1.07118 -6.06215e-08 0
1.07118 -4.55076e-08 0
1.07118 -4.2237e-08 0
1.07118 -4.2361e-08 0
1.07118 -4.33736e-08 0
1.07118 -4.46722e-08 0
1.07118 -4.61275e-08 0
1.07118 -4.77131e-08 0
1.07118 -4.94228e-08 0
1.07118 -5.12537e-08 0
1.07118 -5.32036e-08 0
1.07118 -5.52706e-08 0
1.07118 -5.74525e-08 0
1.07118 -5.97476e-08 0
1.07118 -6.21552e-08 0
1.07118 -6.46734e-08 0
1.07118 -6.72984e-08 0
1.07118 -7.00244e-08 0
1.07118 -7.28464e-08 0
1.07118 -7.57622e-08 0
1.07118 -7.87699e-08 0
1.07118 -8.18667e-08 0
1.07118 -8.50499e-08 0
1.07118 -8.83165e-08 0
1.07118 -9.16637e-08 0
1.07118 -9.5088e-08 0
1.07118 -9.85845e-08 0
1.07118 -1.02149e-07 0
1.07118 -1.0578e-07 0
1.07118 -1.09474e-07 0
1.07118 -1.13229e-07 0
1.07118 -1.17041e-07 0
1.07118 -1.20906e-07 0
1.07118 -1.24819e-07 0
1.07118 -1.28775e-07 0
1.07118 -1.32771e-07 0
1.07118 -1.3681e-07 0
1.07118 -1.40884e-07 0
1.07118 -1.44984e-07 0
1.07118 -1.49106e-07 0
1.07118 -1.53242e-07 0
1.07118 -1.57392e-07 0
1.07118 -1.6156e-07 0
1.07118 -1.65747e-07 0
1.07118 -1.69945e-07 0
1.07118 -1.74148e-07 0
1.07118 -1.7835e-07 0
1.07118 -1.82547e-07 0
1.07118 -1.86736e-07 0
1.07118 -1.90916e-07 0
1.07118 -1.95082e-07 0
1.07117 -1.99229e-07 0
1.07117 -2.03352e-07 0
1.07117 -2.07448e-07 0
1.07117 -2.11512e-07 0
1.07117 -2.15542e-07 0
1.07117 -2.19532e-07 0
1.07117 -2.2348e-07 0
1.07117 -2.27381e-07 0
1.07117 -2.31231e-07 0
1.07117 -2.35027e-07 0
1.07117 -2.38764e-07 0
1.07117 -2.42439e-07 0
1.07117 -2.46049e-07 0
1.07117 -2.49588e-07 0
1.07117 -2.53055e-07 0
1.07117 -2.56444e-07 0
1.07117 -2.59753e-07 0
1.07117 -2.62978e-07 0
1.07117 -2.66114e-07 0
1.07117 -2.6916e-07 0
1.07117 -2.72111e-07 0
1.07117 -2.74965e-07 0
1.07117 -2.77719e-07 0
1.07117 -2.8037e-07 0
1.07117 -2.82916e-07 0
1.07117 -2.85364e-07 0
1.07117 -2.87743e-07 0
1.07117 -2.90195e-07 0
1.07117 -2.9338e-07 0
1.07117 -3.00424e-07 0
1.07117 -3.26235e-07 0
1.07116 -4.41992e-07 0
1.07116 -9.88943e-07 0
1.07116 -3.52654e-06 0
1.07115 -1.62806e-05 0
1.07117 -6.31711e-05 0
1.07063 -0.000370902 0
1.07063 -0.000659492 0
1 -0.000659492 0
1 -0.00751011 0
1.02575 0.00751011 0
1.05188 0.00877225 0
1.0659 0.00513503 0
1.07126 0.00213288 0
1.07285 0.000690263 0
1.07322 0.000180945 0
1.07329 3.88066e-05 0
1.0733 6.62608e-06 0
1.0733 7.76075e-07 0
1.0733 -5.29192e-09 0
1.0733 -4.6643e-08 0
1.0733 -2.99241e-08 0
1.0733 -2.27225e-08 0
1.0733 -2.15317e-08 0
1.0733 -2.22952e-08 0
1.0733 -2.36492e-08 0
1.0733 -2.5245e-08 0
1.0733 -2.70041e-08 0
1.0733 -2.89096e-08 0
1.0733 -3.09566e-08 0
1.0733 -3.31421e-08 0
1.0733 -3.54634e-08 0
1.0733 -3.79182e-08 0
1.0733 -4.05039e-08 0
1.0733 -4.32192e-08 0
1.0733 -4.60636e-08 0
1.0733 -4.9035e-08 0
1.0733 -5.21285e-08 0
1.0733 -5.53363e-08 0
1.0733 -5.8652e-08 0
1.0733 -6.20737e-08 0
1.0733 -6.55993e-08 0
1.0733 -6.92259e-08 0
1.0733 -7.295e-08 0
1.0733 -7.67682e-08 0
1.0733 -8.06774e-08 0
1.0733 -8.46736e-08 0
1.0733 -8.87515e-08 0
1.0733 -9.29065e-08 0
1.0733 -9.7135e-08 0
1.0733 -1.01435e-07 0
1.0733 -1.05802e-07 0
1.0733 -1.10233e-07 0
1.0733 -1.14723e-07 0
1.0733 -1.19265e-07 0
1.0733 -1.23856e-07 0
1.07329 -1.28491e-07 0
1.07329 -1.3317e-07 0
1.07329 -1.37886e-07 0
1.07329 -1.42632e-07 0
1.07329 -1.47405e-07 0
1.07329 -1.52199e-07 0
1.07329 -1.57011e-07 0
1.07329 -1.6184e-07 0
1.07329 -1.66682e-07 0
1.07329 -1.71531e-07 0
1.07329 -1.76382e-07 0
1.07329 -1.81228e-07 0
1.07329 -1.86067e-07 0
1.07329 -1.90896e-07 0
1.07329 -1.9571e-07 0
1.07329 -2.00503e-07 0
1.07329 -2.05272e-07 0
1.07329 -2.10011e-07 0
1.07329 -2.14716e-07 0
1.07329 -2.19382e-07 0
1.07329 -2.24006e-07 0
1.07329 -2.28581e-07 0
1.07329 -2.33105e-07 0
1.07329 -2.37572e-07 0
1.07329 -2.41979e-07 0
1.07329 -2.4632e-07 0
1.07329 -2.50592e-07 0
1.07329 -2.54789e-07 0
1.07329 -2.58908e-07 0
1.07329 -2.62944e-07 0
1.07329 -2.66894e-07 0
1.07329 -2.70753e-07 0
1.07329 -2.74516e-07 0
1.07329 -2.7818e-07 0
1.07329 -2.8174e-07 0
1.07329 -2.85194e-07 0
1.07329 -2.88537e-07 0
1.07328 -2.91765e-07 0
1.07328 -2.94876e-07 0
1.07328 -2.97866e-07 0
1.07328 -3.00734e-07 0
1.07328 -3.03482e-07 0
1.07328 -3.06131e-07 0
1.07328 -3.08768e-07 0
1.07328 -3.118e-07 0
1.07328 -3.17106e-07 0
1.07328 -3.33556e-07 0
1.07328 -4.03566e-07 0
1.07328 -7.28666e-07 0
1.07328 -2.26207e-06 0
1.07325 -9.43081e-06 0
1.07318 -3.88389e-05 0
1.07262 -0.000183433 0
1.07262 -0.000330972 0
1 -0.000330972 0
1 -1.16481e-07 0
1.02253 1.16481e-07 0
1.04885 2.09812e-08 0
1.06425 -3.15967e-07 0
1.07065 -4.5652e-07 0
1.07272 -3.64265e-07 0
1.07327 -2.09015e-07 0
1.07338 -9.51778e-08 0
1.0734 -3.54947e-08 0
1.07341 -1.00324e-08 0
1.07341 -8.08076e-10 0
1.07341 1.72587e-09 0
1.07341 1.73037e-09 0
1.07341 7.97288e-10 0
1.07341 -5.30874e-10 0
1.07341 -2.08697e-09 0
1.07341 -3.82348e-09 0
1.07341 -5.72738e-09 0
1.07341 -7.79457e-09 0
1.07341 -1.00228e-08 0
1.07341 -1.24099e-08 0
1.07341 -1.49527e-08 0
1.07341 -1.76482e-08 0
1.07341 -2.04937e-08 0
1.07341 -2.3486e-08 0
1.07341 -2.66242e-08 0
1.07341 -2.99083e-08 0
1.07341 -3.33362e-08 0
1.07341 -3.69019e-08 0
1.07341 -4.05952e-08 0
1.07341 -4.44075e-08 0
1.0734 -4.83381e-08 0
1.0734 -5.2385e-08 0
1.0734 -5.65446e-08 0
1.0734 -6.0813e-08 0
1.0734 -6.51861e-08 0
1.0734 -6.96606e-08 0
1.0734 -7.42322e-08 0
1.0734 -7.88951e-08 0
1.0734 -8.36438e-08 0
1.0734 -8.84737e-08 0
1.0734 -9.33821e-08 0
1.0734 -9.83658e-08 0
1.0734 -1.0342e-07 0
1.0734 -1.08537e-07 0
1.0734 -1.13713e-07 0
1.0734 -1.18941e-07 0
1.0734 -1.24219e-07 0
1.0734 -1.29541e-07 0
1.0734 -1.34903e-07 0
1.0734 -1.403e-07 0
1.0734 -1.45729e-07 0
1.0734 -1.51187e-07 0
1.0734 -1.56666e-07 0
1.0734 -1.6216e-07 0
1.0734 -1.67661e-07 0
1.0734 -1.73165e-07 0
1.0734 -1.78666e-07 0
1.0734 -1.84161e-07 0
1.0734 -1.89646e-07 0
1.0734 -1.95116e-07 0
1.0734 -2.00566e-07 0
1.0734 -2.05991e-07 0
1.0734 -2.11384e-07 0
1.0734 -2.16742e-07 0
1.0734 -2.22059e-07 0
1.0734 -2.27329e-07 0
1.0734 -2.32548e-07 0
1.0734 -2.37712e-07 0
1.0734 -2.42814e-07 0
1.0734 -2.4785e-07 0
1.0734 -2.52814e-07 0
1.0734 -2.57703e-07 0
1.0734 -2.6251e-07 0
1.0734 -2.67231e-07 0
1.0734 -2.71862e-07 0
1.07339 -2.76396e-07 0
1.07339 -2.8083e-07 0
1.07339 -2.85159e-07 0
1.07339 -2.89378e-07 0
1.07339 -2.93482e-07 0
1.07339 -2.97468e-07 0
1.07339 -3.0133e-07 0
1.07339 -3.05065e-07 0
1.07339 -3.08669e-07 0
1.07339 -3.12137e-07 0
1.07339 -3.15467e-07 0
1.07339 -3.18655e-07 0
1.07339 -3.21701e-07 0
1.07339 -3.24608e-07 0
1.07339 -3.27386e-07 0
1.07339 -3.30056e-07 0
1.07339 -3.32632e-07 0
1.07339 -3.35014e-07 0
1.07339 -3.3652e-07 0
1.07339 -3.37089e-07 0
1.07338 -3.37817e-07 0
1.07335 -3.38678e-07 0
1.07324 -3.3888e-07 0
1.07269 -3.37209e-07 0
1.07269 -3.32756e-07 0
1 -3.32756e-07 0
1 0.00750989 0
1.02253 -0.00750989 0
1.04885 -0.00877226 0
1.06425 -0.00513568 0
1.07065 -0.00213377 0
1.07272 -0.000690964 0
1.07327 -0.000181342 0
1.07338 -3.89849e-05 0
1.0734 -6.69164e-06 0
1.07341 -7.93987e-07 0
1.07341 4.46275e-09 0
1.07341 5.03597e-08 0
1.07341 3.34631e-08 0
1.07341 2.43338e-08 0
1.07341 2.04679e-08 0
1.07341 1.8114e-08 0
1.07341 1.59937e-08 0
1.07341 1.37813e-08 0
1.07341 1.1406e-08 0
1.07341 8.85485e-09 0
1.07341 6.12768e-09 0
1.07341 3.2273e-09 0
1.07341 1.57769e-10 0
1.07341 -3.07851e-09 0
1.07341 -6.47723e-09 0
1.07341 -1.00378e-08 0
1.07341 -1.37616e-08 0
1.07341 -1.76462e-08 0
1.07341 -2.16847e-08 0
1.07341 -2.58639e-08 0
1.07341 -3.01726e-08 0
1.0734 -3.46119e-08 0
1.0734 -3.91798e-08 0
1.0734 -4.38723e-08 0
1.0734 -4.86849e-08 0
1.0734 -5.36128e-08 0
1.0734 -5.86525e-08 0
1.0734 -6.37997e-08 0
1.0734 -6.90476e-08 0
1.0734 -7.43899e-08 0
1.0734 -7.9821e-08 0
1.0734 -8.53379e-08 0
1.0734 -9.09377e-08 0
1.0734 -9.66142e-08 0
1.0734 -1.0236e-07 0
1.0734 -1.08168e-07 0
1.0734 -1.14034e-07 0
1.0734 -1.19954e-07 0
1.0734 -1.2592e-07 0
1.0734 -1.31927e-07 0
1.0734 -1.37974e-07 0
1.0734 -1.4406e-07 0
1.0734 -1.50181e-07 0
1.0734 -1.56328e-07 0
1.0734 -1.62486e-07 0
1.0734 -1.68646e-07 0
1.0734 -1.74804e-07 0
1.0734 -1.80956e-07 0
1.0734 -1.87099e-07 0
1.0734 -1.93229e-07 0
1.0734 -1.99341e-07 0
1.0734 -2.05428e-07 0
1.0734 -2.11483e-07 0
1.0734 -2.17502e-07 0
1.0734 -2.23477e-07 0
1.0734 -2.29405e-07 0
1.0734 -2.35279e-07 0
1.0734 -2.41095e-07 0
1.0734 -2.46845e-07 0
1.0734 -2.52525e-07 0
1.0734 -2.5813e-07 0
1.0734 -2.63652e-07 0
1.0734 -2.69088e-07 0
1.0734 -2.74431e-07 0
1.0734 -2.79676e-07 0
1.0734 -2.84817e-07 0
1.07339 -2.89849e-07 0
1.07339 -2.94768e-07 0
1.07339 -2.99567e-07 0
1.07339 -3.04241e-07 0
1.07339 -3.08785e-07 0
1.07339 -3.13195e-07 0
1.07339 -3.17466e-07 0
1.07339 -3.21593e-07 0
1.07339 -3.25571e-07 0
1.07339 -3.29397e-07 0
1.07339 -3.33065e-07 0
1.07339 -3.36574e-07 0
1.07339 -3.39917e-07 0
1.07339 -3.43081e-07 0
1.07339 -3.45997e-07 0
1.07339 -3.48302e-07 0
1.07339 -3.48159e-07 0
1.07339 -3.36549e-07 0
1.07339 -2.69564e-07 0
1.07339 5.45142e-08 0
1.07338 1.58647e-06 0
1.07335 8.75338e-06 0
1.07324 3.8161e-05 0
1.07269 0.000182758 0
1.07269 0.000330306 0
1 0.000330306 0
1 0.016092 0
1.02575 -0.016092 0
1.05188 -0.0174825 0
1.0659 -0.00981006 0
1.07126 -0.00392122 0
1.07285 -0.00121946 0
1.07322 -0.00030578 0
1.07329 -6.20687e-05 0
1.0733 -9.73526e-06 0
1.0733 -9.01109e-07 0
1.0733 1.08614e-07 0
1.0733 1.07651e-07 0
1.0733 6.43504e-08 0
1.0733 4.71339e-08 0
1.0733 4.1134e-08 0
1.0733 3.81239e-08 0
1.0733 3.56561e-08 0
1.0733 3.31434e-08 0
1.0733 3.04617e-08 0
1.0733 2.75883e-08 0
1.0733 2.45214e-08 0
1.0733 2.12639e-08 0
1.0733 1.78212e-08 0
1.0733 1.41952e-08 0
1.0733 1.03919e-08 0
1.0733 6.41173e-09 0
1.0733 2.25146e-09 0
1.0733 -2.08734e-09 0
1.0733 -6.59728e-09 0
1.0733 -1.12609e-08 0
1.0733 -1.60634e-08 0
1.0733 -2.10091e-08 0
1.0733 -2.60959e-08 0
1.0733 -3.13191e-08 0
1.0733 -3.66736e-08 0
1.0733 -4.21536e-08 0
1.0733 -4.77558e-08 0
1.0733 -5.34759e-08 0
1.0733 -5.93062e-08 0
1.0733 -6.52392e-08 0
1.0733 -7.12684e-08 0
1.0733 -7.73905e-08 0
1.0733 -8.36031e-08 0
1.0733 -8.98992e-08 0
1.0733 -9.62705e-08 0
1.0733 -1.02708e-07 0
1.0733 -1.09207e-07 0
1.07329 -1.15767e-07 0
1.07329 -1.22372e-07 0
1.07329 -1.2902e-07 0
1.07329 -1.35713e-07 0
1.07329 -1.42449e-07 0
1.07329 -1.49227e-07 0
1.07329 -1.56035e-07 0
1.07329 -1.62854e-07 0
1.07329 -1.69668e-07 0
1.07329 -1.76475e-07 0
1.07329 -1.83274e-07 0
1.07329 -1.90061e-07 0
1.07329 -1.96832e-07 0
1.07329 -2.03581e-07 0
1.07329 -2.103e-07 0
1.07329 -2.16983e-07 0
1.07329 -2.23622e-07 0
1.07329 -2.30212e-07 0
1.07329 -2.36748e-07 0
1.07329 -2.43222e-07 0
1.07329 -2.49629e-07 0
1.07329 -2.55963e-07 0
1.07329 -2.62218e-07 0
1.07329 -2.68387e-07 0
1.07329 -2.74464e-07 0
1.07329 -2.80443e-07 0
1.07329 -2.86318e-07 0
1.07329 -2.92083e-07 0
1.07329 -2.97732e-07 0
1.07329 -3.03259e-07 0
1.07329 -3.08658e-07 0
1.07329 -3.13923e-07 0
1.07329 -3.1905e-07 0
1.07329 -3.24031e-07 0
1.07329 -3.28862e-07 0
1.07329 -3.33538e-07 0
1.07329 -3.38054e-07 0
1.07328 -3.42404e-07 0
1.07328 -3.46584e-07 0
1.07328 -3.50589e-07 0
1.07328 -3.54414e-07 0
1.07328 -3.58053e-07 0
1.07328 -3.61479e-07 0
1.07328 -3.6457e-07 0
1.07328 -3.66713e-07 0
1.07328 -3.6486e-07 0
1.07328 -3.44144e-07 0
1.07328 -2.31633e-07 0
1.07328 3.14674e-07 0
1.07328 2.85089e-06 0
1.07325 1.56028e-05 0
1.07318 6.24927e-05 0
1.07262 0.000370227 0
1.07262 0.000658826 0
1 0.000658826 0