# vtk DataFile Version 2.0
FlowField
ASCII
DATASET STRUCTURED_GRID
DIMENSIONS 102 1 12 
POINTS 1224 double
0 0 0
0.4 0 0
0.8 0 0
1.2 0 0
1.6 0 0
2 0 0
2.4 0 0
2.8 0 0
3.2 0 0
3.6 0 0
4 0 0
4.4 0 0
4.8 0 0
5.2 0 0
5.6 0 0
6 0 0
6.4 0 0
6.8 0 0
7.2 0 0
7.6 0 0
8 0 0
8.4 0 0
8.8 0 0
9.2 0 0
9.6 0 0
10 0 0
10.4 0 0
10.8 0 0
11.2 0 0
11.6 0 0
12 0 0
12.4 0 0
12.8 0 0
13.2 0 0
13.6 0 0
14 0 0
14.4 0 0
14.8 0 0
15.2 0 0
15.6 0 0
16 0 0
16.4 0 0
16.8 0 0
17.2 0 0
17.6 0 0
18 0 0
18.4 0 0
18.8 0 0
19.2 0 0
19.6 0 0
20 0 0
20.4 0 0
20.8 0 0
21.2 0 0
21.6 0 0
22 0 0
22.4 0 0
22.8 0 0
23.2 0 0
23.6 0 0
24 0 0
24.4 0 0
24.8 0 0
25.2 0 0
25.6 0 0
26 0 0
26.4 0 0
26.8 0 0
27.2 0 0
27.6 0 0
28 0 0
28.4 0 0
28.8 0 0
29.2 0 0
29.6 0 0
30 0 0
30.4 0 0
30.8 0 0
31.2 0 0
31.6 0 0
32 0 0
32.4 0 0
32.8 0 0
33.2 0 0
33.6 0 0
34 0 0
34.4 0 0
34.8 0 0
35.2 0 0
35.6 0 0
36 0 0
36.4 0 0
36.8 0 0
37.2 0 0
37.6 0 0
38 0 0
38.4 0 0
38.8 0 0
39.2 0 0
39.6 0 0
40 0 0
40.4 0 0
0 0.1 0
0.4 0.1 0
0.8 0.1 0
1.2 0.1 0
1.6 0.1 0
2 0.1 0
2.4 0.1 0
2.8 0.1 0
3.2 0.1 0
3.6 0.1 0
4 0.1 0
4.4 0.1 0
4.8 0.1 0
5.2 0.1 0
5.6 0.1 0
6 0.1 0
6.4 0.1 0
6.8 0.1 0
7.2 0.1 0
7.6 0.1 0
8 0.1 0
8.4 0.1 0
8.8 0.1 0
9.2 0.1 0
9.6 0.1 0
10 0.1 0
10.4 0.1 0
10.8 0.1 0
11.2 0.1 0
11.6 0.1 0
12 0.1 0
12.4 0.1 0
12.8 0.1 0
13.2 0.1 0
13.6 0.1 0
14 0.1 0
14.4 0.1 0
14.8 0.1 0
15.2 0.1 0
15.6 0.1 0
16 0.1 0
16.4 0.1 0
16.8 0.1 0
17.2 0.1 0
17.6 0.1 0
18 0.1 0
18.4 0.1 0
18.8 0.1 0
19.2 0.1 0
19.6 0.1 0
20 0.1 0
20.4 0.1 0
20.8 0.1 0
21.2 0.1 0
21.6 0.1 0
22 0.1 0
22.4 0.1 0
22.8 0.1 0
23.2 0.1 0
23.6 0.1 0
24 0.1 0
24.4 0.1 0
24.8 0.1 0
25.2 0.1 0
25.6 0.1 0
26 0.1 0
26.4 0.1 0
26.8 0.1 0
27.2 0.1 0
27.6 0.1 0
28 0.1 0
28.4 0.1 0
28.8 0.1 0
29.2 0.1 0
29.6 0.1 0
30 0.1 0
30.4 0.1 0
30.8 0.1 0
31.2 0.1 0
31.6 0.1 0
32 0.1 0
32.4 0.1 0
32.8 0.1 0
33.2 0.1 0
33.6 0.1 0
34 0.1 0
34.4 0.1 0
34.8 0.1 0
35.2 0.1 0
35.6 0.1 0
36 0.1 0
36.4 0.1 0
36.8 0.1 0
37.2 0.1 0
37.6 0.1 0
38 0.1 0
38.4 0.1 0
38.8 0.1 0
39.2 0.1 0
39.6 0.1 0
40 0.1 0
40.4 0.1 0
0 0.2 0
0.4 0.2 0
0.8 0.2 0
1.2 0.2 0
1.6 0.2 0
2 0.2 0
2.4 0.2 0
2.8 0.2 0
3.2 0.2 0
3.6 0.2 0
4 0.2 0
4.4 0.2 0
4.8 0.2 0
5.2 0.2 0
5.6 0.2 0
6 0.2 0
6.4 0.2 0
6.8 0.2 0
7.2 0.2 0
7.6 0.2 0
8 0.2 0
8.4 0.2 0
8.8 0.2 0
9.2 0.2 0
9.6 0.2 0
10 0.2 0
10.4 0.2 0
10.8 0.2 0
11.2 0.2 0
11.6 0.2 0
12 0.2 0
12.4 0.2 0
12.8 0.2 0
13.2 0.2 0
13.6 0.2 0
14 0.2 0
14.4 0.2 0
14.8 0.2 0
15.2 0.2 0
15.6 0.2 0
16 0.2 0
16.4 0.2 0
16.8 0.2 0
17.2 0.2 0
17.6 0.2 0
18 0.2 0
18.4 0.2 0
18.8 0.2 0
19.2 0.2 0
19.6 0.2 0
20 0.2 0
20.4 0.2 0
20.8 0.2 0
21.2 0.2 0
21.6 0.2 0
22 0.2 0
22.4 0.2 0
22.8 0.2 0
23.2 0.2 0
23.6 0.2 0
24 0.2 0
24.4 0.2 0
24.8 0.2 0
25.2 0.2 0
25.6 0.2 0
26 0.2 0
26.4 0.2 0
26.8 0.2 0
27.2 0.2 0
27.6 0.2 0
28 0.2 0
28.4 0.2 0
28.8 0.2 0
29.2 0.2 0
29.6 0.2 0
30 0.2 0
30.4 0.2 0
30.8 0.2 0
31.2 0.2 0
31.6 0.2 0
32 0.2 0
32.4 0.2 0
32.8 0.2 0
33.2 0.2 0
33.6 0.2 0
34 0.2 0
34.4 0.2 0
34.8 0.2 0
35.2 0.2 0
35.6 0.2 0
36 0.2 0
36.4 0.2 0
36.8 0.2 0
37.2 0.2 0
37.6 0.2 0
38 0.2 0
38.4 0.2 0
38.8 0.2 0
39.2 0.2 0
39.6 0.2 0
40 0.2 0
40.4 0.2 0
0 0.3 0
0.4 0.3 0
0.8 0.3 0
1.2 0.3 0
1.6 0.3 0
2 0.3 0
2.4 0.3 0
2.8 0.3 0
3.2 0.3 0
3.6 0.3 0
4 0.3 0
4.4 0.3 0
4.8 0.3 0
5.2 0.3 0
5.6 0.3 0
6 0.3 0
6.4 0.3 0
6.8 0.3 0
7.2 0.3 0
7.6 0.3 0
8 0.3 0
8.4 0.3 0
8.8 0.3 0
9.2 0.3 0
9.6 0.3 0
10 0.3 0
10.4 0.3 0
10.8 0.3 0
11.2 0.3 0
11.6 0.3 0
12 0.3 0
12.4 0.3 0
12.8 0.3 0
13.2 0.3 0
13.6 0.3 0
14 0.3 0
14.4 0.3 0
14.8 0.3 0
15.2 0.3 0
15.6 0.3 0
16 0.3 0
16.4 0.3 0
16.8 0.3 0
17.2 0.3 0
17.6 0.3 0
18 0.3 0
18.4 0.3 0
18.8 0.3 0
19.2 0.3 0
19.6 0.3 0
20 0.3 0
20.4 0.3 0
20.8 0.3 0
21.2 0.3 0
21.6 0.3 0
22 0.3 0
22.4 0.3 0
22.8 0.3 0
23.2 0.3 0
23.6 0.3 0
24 0.3 0
24.4 0.3 0
24.8 0.3 0
25.2 0.3 0
25.6 0.3 0
26 0.3 0
26.4 0.3 0
26.8 0.3 0
27.2 0.3 0
27.6 0.3 0
28 0.3 0
28.4 0.3 0
28.8 0.3 0
29.2 0.3 0
29.6 0.3 0
30 0.3 0
30.4 0.3 0
30.8 0.3 0
31.2 0.3 0
31.6 0.3 0
32 0.3 0
32.4 0.3 0
32.8 0.3 0
33.2 0.3 0
33.6 0.3 0
34 0.3 0
34.4 0.3 0
34.8 0.3 0
35.2 0.3 0
35.6 0.3 0
36 0.3 0
36.4 0.3 0
36.8 0.3 0
37.2 0.3 0
37.6 0.3 0
38 0.3 0
38.4 0.3 0
38.8 0.3 0
39.2 0.3 0
39.6 0.3 0
40 0.3 0
40.4 0.3 0
0 0.4 0
0.4 0.4 0
0.8 0.4 0
1.2 0.4 0
1.6 0.4 0
2 0.4 0
2.4 0.4 0
2.8 0.4 0
3.2 0.4 0
3.6 0.4 0
4 0.4 0
4.4 0.4 0
4.8 0.4 0
5.2 0.4 0
5.6 0.4 0
6 0.4 0
6.4 0.4 0
6.8 0.4 0
7.2 0.4 0
7.6 0.4 0
8 0.4 0
8.4 0.4 0
8.8 0.4 0
9.2 0.4 0
9.6 0.4 0
10 0.4 0
10.4 0.4 0
10.8 0.4 0
11.2 0.4 0
11.6 0.4 0
12 0.4 0
12.4 0.4 0
12.8 0.4 0
13.2 0.4 0
13.6 0.4 0
14 0.4 0
14.4 0.4 0
14.8 0.4 0
15.2 0.4 0
15.6 0.4 0
16 0.4 0
16.4 0.4 0
16.8 0.4 0
17.2 0.4 0
17.6 0.4 0
18 0.4 0
18.4 0.4 0
18.8 0.4 0
19.2 0.4 0
19.6 0.4 0
20 0.4 0
20.4 0.4 0
20.8 0.4 0
21.2 0.4 0
21.6 0.4 0
22 0.4 0
22.4 0.4 0
22.8 0.4 0
23.2 0.4 0
23.6 0.4 0
24 0.4 0
24.4 0.4 0
24.8 0.4 0
25.2 0.4 0
25.6 0.4 0
26 0.4 0
26.4 0.4 0
26.8 0.4 0
27.2 0.4 0
27.6 0.4 0
28 0.4 0
28.4 0.4 0
28.8 0.4 0
29.2 0.4 0
29.6 0.4 0
30 0.4 0
30.4 0.4 0
30.8 0.4 0
31.2 0.4 0
31.6 0.4 0
32 0.4 0
32.4 0.4 0
32.8 0.4 0
33.2 0.4 0
33.6 0.4 0
34 0.4 0
34.4 0.4 0
34.8 0.4 0
35.2 0.4 0
35.6 0.4 0
36 0.4 0
36.4 0.4 0
36.8 0.4 0
37.2 0.4 0
37.6 0.4 0
38 0.4 0
38.4 0.4 0
38.8 0.4 0
39.2 0.4 0
39.6 0.4 0
40 0.4 0
40.4 0.4 0
0 0.5 0
0.4 0.5 0
0.8 0.5 0
1.2 0.5 0
1.6 0.5 0
2 0.5 0
2.4 0.5 0
2.8 0.5 0
3.2 0.5 0
3.6 0.5 0
4 0.5 0
4.4 0.5 0
4.8 0.5 0
5.2 0.5 0
5.6 0.5 0
6 0.5 0
6.4 0.5 0
6.8 0.5 0
7.2 0.5 0
7.6 0.5 0
8 0.5 0
8.4 0.5 0
8.8 0.5 0
9.2 0.5 0
9.6 0.5 0
10 0.5 0
10.4 0.5 0
10.8 0.5 0
11.2 0.5 0
11.6 0.5 0
12 0.5 0
12.4 0.5 0
12.8 0.5 0
13.2 0.5 0
13.6 0.5 0
14 0.5 0
14.4 0.5 0
14.8 0.5 0
15.2 0.5 0
15.6 0.5 0
16 0.5 0
16.4 0.5 0
16.8 0.5 0
17.2 0.5 0
17.6 0.5 0
18 0.5 0
18.4 0.5 0
18.8 0.5 0
19.2 0.5 0
19.6 0.5 0
20 0.5 0
20.4 0.5 0
20.8 0.5 0
21.2 0.5 0
21.6 0.5 0
22 0.5 0
22.4 0.5 0
22.8 0.5 0
23.2 0.5 0
23.6 0.5 0
24 0.5 0
24.4 0.5 0
24.8 0.5 0
25.2 0.5 0
25.6 0.5 0
26 0.5 0
26.4 0.5 0
26.8 0.5 0
27.2 0.5 0
27.6 0.5 0
28 0.5 0
28.4 0.5 0
28.8 0.5 0
29.2 0.5 0
29.6 0.5 0
30 0.5 0
30.4 0.5 0
30.8 0.5 0
31.2 0.5 0
31.6 0.5 0
32 0.5 0
32.4 0.5 0
32.8 0.5 0
33.2 0.5 0
33.6 0.5 0
34 0.5 0
34.4 0.5 0
34.8 0.5 0
35.2 0.5 0
35.6 0.5 0
36 0.5 0
36.4 0.5 0
36.8 0.5 0
37.2 0.5 0
37.6 0.5 0
38 0.5 0
38.4 0.5 0
38.8 0.5 0
39.2 0.5 0
39.6 0.5 0
40 0.5 0
40.4 0.5 0
0 0.6 0
0.4 0.6 0
0.8 0.6 0
1.2 0.6 0
1.6 0.6 0
2 0.6 0
2.4 0.6 0
2.8 0.6 0
3.2 0.6 0
3.6 0.6 0
4 0.6 0
4.4 0.6 0
4.8 0.6 0
5.2 0.6 0
5.6 0.6 0
6 0.6 0
6.4 0.6 0
6.8 0.6 0
7.2 0.6 0
7.6 0.6 0
8 0.6 0
8.4 0.6 0
8.8 0.6 0
9.2 0.6 0
9.6 0.6 0
10 0.6 0
10.4 0.6 0
10.8 0.6 0
11.2 0.6 0
11.6 0.6 0
12 0.6 0
12.4 0.6 0
12.8 0.6 0
13.2 0.6 0
13.6 0.6 0
14 0.6 0
14.4 0.6 0
14.8 0.6 0
15.2 0.6 0
15.6 0.6 0
16 0.6 0
16.4 0.6 0
16.8 0.6 0
17.2 0.6 0
17.6 0.6 0
18 0.6 0
18.4 0.6 0
18.8 0.6 0
19.2 0.6 0
19.6 0.6 0
20 0.6 0
20.4 0.6 0
20.8 0.6 0
21.2 0.6 0
21.6 0.6 0
22 0.6 0
22.4 0.6 0
22.8 0.6 0
23.2 0.6 0
23.6 0.6 0
24 0.6 0
24.4 0.6 0
24.8 0.6 0
25.2 0.6 0
25.6 0.6 0
26 0.6 0
26.4 0.6 0
26.8 0.6 0
27.2 0.6 0
27.6 0.6 0
28 0.6 0
28.4 0.6 0
28.8 0.6 0
29.2 0.6 0
29.6 0.6 0
30 0.6 0
30.4 0.6 0
30.8 0.6 0
31.2 0.6 0
31.6 0.6 0
32 0.6 0
32.4 0.6 0
32.8 0.6 0
33.2 0.6 0
33.6 0.6 0
34 0.6 0
34.4 0.6 0
34.8 0.6 0
35.2 0.6 0
35.6 0.6 0
36 0.6 0
36.4 0.6 0
36.8 0.6 0
37.2 0.6 0
37.6 0.6 0
38 0.6 0
38.4 0.6 0
38.8 0.6 0
39.2 0.6 0
39.6 0.6 0
40 0.6 0
40.4 0.6 0
0 0.7 0
0.4 0.7 0
0.8 0.7 0
1.2 0.7 0
1.6 0.7 0
2 0.7 0
2.4 0.7 0
2.8 0.7 0
3.2 0.7 0
3.6 0.7 0
4 0.7 0
4.4 0.7 0
4.8 0.7 0
5.2 0.7 0
5.6 0.7 0
6 0.7 0
6.4 0.7 0
6.8 0.7 0
7.2 0.7 0
7.6 0.7 0
8 0.7 0
8.4 0.7 0
8.8 0.7 0
9.2 0.7 0
9.6 0.7 0
10 0.7 0
10.4 0.7 0
10.8 0.7 0
11.2 0.7 0
11.6 0.7 0
12 0.7 0
12.4 0.7 0
12.8 0.7 0
13.2 0.7 0
13.6 0.7 0
14 0.7 0
14.4 0.7 0
14.8 0.7 0
15.2 0.7 0
15.6 0.7 0
16 0.7 0
16.4 0.7 0
16.8 0.7 0
17.2 0.7 0
17.6 0.7 0
18 0.7 0
18.4 0.7 0
18.8 0.7 0
19.2 0.7 0
19.6 0.7 0
20 0.7 0
20.4 0.7 0
20.8 0.7 0
21.2 0.7 0
21.6 0.7 0
22 0.7 0
22.4 0.7 0
22.8 0.7 0
23.2 0.7 0
23.6 0.7 0
24 0.7 0
24.4 0.7 0
24.8 0.7 0
25.2 0.7 0
25.6 0.7 0
26 0.7 0
26.4 0.7 0
26.8 0.7 0
27.2 0.7 0
27.6 0.7 0
28 0.7 0
28.4 0.7 0
28.8 0.7 0
29.2 0.7 0
29.6 0.7 0
30 0.7 0
30.4 0.7 0
30.8 0.7 0
31.2 0.7 0
31.6 0.7 0
32 0.7 0
32.4 0.7 0
32.8 0.7 0
33.2 0.7 0
33.6 0.7 0
34 0.7 0
34.4 0.7 0
34.8 0.7 0
35.2 0.7 0
35.6 0.7 0
36 0.7 0
36.4 0.7 0
36.8 0.7 0
37.2 0.7 0
37.6 0.7 0
38 0.7 0
38.4 0.7 0
38.8 0.7 0
39.2 0.7 0
39.6 0.7 0
40 0.7 0
40.4 0.7 0
0 0.8 0
0.4 0.8 0
0.8 0.8 0
1.2 0.8 0
1.6 0.8 0
2 0.8 0
2.4 0.8 0
2.8 0.8 0
3.2 0.8 0
3.6 0.8 0
4 0.8 0
4.4 0.8 0
4.8 0.8 0
5.2 0.8 0
5.6 0.8 0
6 0.8 0
6.4 0.8 0
6.8 0.8 0
7.2 0.8 0
7.6 0.8 0
8 0.8 0
8.4 0.8 0
8.8 0.8 0
9.2 0.8 0
9.6 0.8 0
10 0.8 0
10.4 0.8 0
10.8 0.8 0
11.2 0.8 0
11.6 0.8 0
12 0.8 0
12.4 0.8 0
12.8 0.8 0
13.2 0.8 0
13.6 0.8 0
14 0.8 0
14.4 0.8 0
14.8 0.8 0
15.2 0.8 0
15.6 0.8 0
16 0.8 0
16.4 0.8 0
16.8 0.8 0
17.2 0.8 0
17.6 0.8 0
18 0.8 0
18.4 0.8 0
18.8 0.8 0
19.2 0.8 0
19.6 0.8 0
20 0.8 0
20.4 0.8 0
20.8 0.8 0
21.2 0.8 0
21.6 0.8 0
22 0.8 0
22.4 0.8 0
22.8 0.8 0
23.2 0.8 0
23.6 0.8 0
24 0.8 0
24.4 0.8 0
24.8 0.8 0
25.2 0.8 0
25.6 0.8 0
26 0.8 0
26.4 0.8 0
26.8 0.8 0
27.2 0.8 0
27.6 0.8 0
28 0.8 0
28.4 0.8 0
28.8 0.8 0
29.2 0.8 0
29.6 0.8 0
30 0.8 0
30.4 0.8 0
30.8 0.8 0
31.2 0.8 0
31.6 0.8 0
32 0.8 0
32.4 0.8 0
32.8 0.8 0
33.2 0.8 0
33.6 0.8 0
34 0.8 0
34.4 0.8 0
34.8 0.8 0
35.2 0.8 0
35.6 0.8 0
36 0.8 0
36.4 0.8 0
36.8 0.8 0
37.2 0.8 0
37.6 0.8 0
38 0.8 0
38.4 0.8 0
38.8 0.8 0
39.2 0.8 0
39.6 0.8 0
40 0.8 0
40.4 0.8 0
0 0.9 0
0.4 0.9 0
0.8 0.9 0
1.2 0.9 0
1.6 0.9 0
2 0.9 0
2.4 0.9 0
2.8 0.9 0
3.2 0.9 0
3.6 0.9 0
4 0.9 0
4.4 0.9 0
4.8 0.9 0
5.2 0.9 0
5.6 0.9 0
6 0.9 0
6.4 0.9 0
6.8 0.9 0
7.2 0.9 0
7.6 0.9 0
8 0.9 0
8.4 0.9 0
8.8 0.9 0
9.2 0.9 0
9.6 0.9 0
10 0.9 0
10.4 0.9 0
10.8 0.9 0
11.2 0.9 0
11.6 0.9 0
12 0.9 0
12.4 0.9 0
12.8 0.9 0
13.2 0.9 0
13.6 0.9 0
14 0.9 0
14.4 0.9 0
14.8 0.9 0
15.2 0.9 0
15.6 0.9 0
16 0.9 0
16.4 0.9 0
16.8 0.9 0
17.2 0.9 0
17.6 0.9 0
18 0.9 0
18.4 0.9 0
18.8 0.9 0
19.2 0.9 0
19.6 0.9 0
20 0.9 0
20.4 0.9 0
20.8 0.9 0
21.2 0.9 0
21.6 0.9 0
22 0.9 0
22.4 0.9 0
22.8 0.9 0
23.2 0.9 0
23.6 0.9 0
24 0.9 0
24.4 0.9 0
24.8 0.9 0
25.2 0.9 0
25.6 0.9 0
26 0.9 0
26.4 0.9 0
26.8 0.9 0
27.2 0.9 0
27.6 0.9 0
28 0.9 0
28.4 0.9 0
28.8 0.9 0
29.2 0.9 0
29.6 0.9 0
30 0.9 0
30.4 0.9 0
30.8 0.9 0
31.2 0.9 0
31.6 0.9 0
32 0.9 0
32.4 0.9 0
32.8 0.9 0
33.2 0.9 0
33.6 0.9 0
34 0.9 0
34.4 0.9 0
34.8 0.9 0
35.2 0.9 0
35.6 0.9 0
36 0.9 0
36.4 0.9 0
36.8 0.9 0
37.2 0.9 0
37.6 0.9 0
38 0.9 0
38.4 0.9 0
38.8 0.9 0
39.2 0.9 0
39.6 0.9 0
40 0.9 0
40.4 0.9 0
0 1 0
0.4 1 0
0.8 1 0
1.2 1 0
1.6 1 0
2 1 0
2.4 1 0
2.8 1 0
3.2 1 0
3.6 1 0
4 1 0
4.4 1 0
4.8 1 0
5.2 1 0
5.6 1 0
6 1 0
6.4 1 0
6.8 1 0
7.2 1 0
7.6 1 0
8 1 0
8.4 1 0
8.8 1 0
9.2 1 0
9.6 1 0
10 1 0
10.4 1 0
10.8 1 0
11.2 1 0
11.6 1 0
12 1 0
12.4 1 0
12.8 1 0
13.2 1 0
13.6 1 0
14 1 0
14.4 1 0
14.8 1 0
15.2 1 0
15.6 1 0
16 1 0
16.4 1 0
16.8 1 0
17.2 1 0
17.6 1 0
18 1 0
18.4 1 0
18.8 1 0
19.2 1 0
19.6 1 0
20 1 0
20.4 1 0
20.8 1 0
21.2 1 0
21.6 1 0
22 1 0
22.4 1 0
22.8 1 0
23.2 1 0
23.6 1 0
24 1 0
24.4 1 0
24.8 1 0
25.2 1 0
25.6 1 0
26 1 0
26.4 1 0
26.8 1 0
27.2 1 0
27.6 1 0
28 1 0
28.4 1 0
28.8 1 0
29.2 1 0
29.6 1 0
30 1 0
30.4 1 0
30.8 1 0
31.2 1 0
31.6 1 0
32 1 0
32.4 1 0
32.8 1 0
33.2 1 0
33.6 1 0
34 1 0
34.4 1 0
34.8 1 0
35.2 1 0
35.6 1 0
36 1 0
36.4 1 0
36.8 1 0
37.2 1 0
37.6 1 0
38 1 0
38.4 1 0
38.8 1 0
39.2 1 0
39.6 1 0
40 1 0
40.4 1 0
0 1.1 0
0.4 1.1 0
0.8 1.1 0
1.2 1.1 0
1.6 1.1 0
2 1.1 0
2.4 1.1 0
2.8 1.1 0
3.2 1.1 0
3.6 1.1 0
4 1.1 0
4.4 1.1 0
4.8 1.1 0
5.2 1.1 0
5.6 1.1 0
6 1.1 0
6.4 1.1 0
6.8 1.1 0
7.2 1.1 0
7.6 1.1 0
8 1.1 0
8.4 1.1 0
8.8 1.1 0
9.2 1.1 0
9.6 1.1 0
10 1.1 0
10.4 1.1 0
10.8 1.1 0
11.2 1.1 0
11.6 1.1 0
12 1.1 0
12.4 1.1 0
12.8 1.1 0
13.2 1.1 0
13.6 1.1 0
14 1.1 0
14.4 1.1 0
14.8 1.1 0
15.2 1.1 0
15.6 1.1 0
16 1.1 0
16.4 1.1 0
16.8 1.1 0
17.2 1.1 0
17.6 1.1 0
18 1.1 0
18.4 1.1 0
18.8 1.1 0
19.2 1.1 0
19.6 1.1 0
20 1.1 0
20.4 1.1 0
20.8 1.1 0
21.2 1.1 0
21.6 1.1 0
22 1.1 0
22.4 1.1 0
22.8 1.1 0
23.2 1.1 0
23.6 1.1 0
24 1.1 0
24.4 1.1 0
24.8 1.1 0
25.2 1.1 0
25.6 1.1 0
26 1.1 0
26.4 1.1 0
26.8 1.1 0
27.2 1.1 0
27.6 1.1 0
28 1.1 0
28.4 1.1 0
28.8 1.1 0
29.2 1.1 0
29.6 1.1 0
30 1.1 0
30.4 1.1 0
30.8 1.1 0
31.2 1.1 0
31.6 1.1 0
32 1.1 0
32.4 1.1 0
32.8 1.1 0
33.2 1.1 0
33.6 1.1 0
34 1.1 0
34.4 1.1 0
34.8 1.1 0
35.2 1.1 0
35.6 1.1 0
36 1.1 0
36.4 1.1 0
36.8 1.1 0
37.2 1.1 0
37.6 1.1 0
38 1.1 0
38.4 1.1 0
38.8 1.1 0
39.2 1.1 0
39.6 1.1 0
40 1.1 0
40.4 1.1 0

POINT_DATA 1224

SCALARS phi double
LOOKUP_TABLE default
0.999994
1.00001
0.999956
0.999559
0.9983
0.995702
0.991537
0.9858
0.978615
0.970169
0.960673
0.950341
0.939374
0.92795
0.916225
0.904331
0.892375
0.880447
0.86861
0.856907
0.845356
0.833945
0.822636
0.811361
0.800029
0.788531
0.776748
0.764559
0.751852
0.738527
0.724507
0.709736
0.694186
0.677854
0.660758
0.642941
0.62446
0.605386
0.585802
0.565793
0.54545
0.524861
0.504114
0.483289
0.462464
0.441709
0.421088
0.400657
0.380467
0.360561
0.340979
0.321756
0.30292
0.284501
0.266522
0.249006
0.231975
0.21545
0.199452
0.183999
0.169113
0.154814
0.14112
0.128053
0.115631
0.103872
0.092793
0.0824079
0.0727283
0.0637616
0.0555106
0.047973
0.0411401
0.034997
0.029522
0.0246874
0.0204591
0.0167981
0.0136609
0.0110014
0.00877141
0.00692248
0.00540695
0.00417905
0.00319583
0.00241783
0.00180952
0.00133958
0.000980889
0.000710392
0.000508855
0.000360498
0.000252594
0.000175049
0.000119984
8.13431e-05
5.4546e-05
3.61854e-05
2.37208e-05
1.55138e-05
9.34944e-06
9.34944e-06
0.999994
1.00001
0.999956
0.999559
0.9983
0.995702
0.991537
0.9858
0.978615
0.970169
0.960673
0.950341
0.939374
0.92795
0.916225
0.904331
0.892375
0.880447
0.86861
0.856907
0.845356
0.833945
0.822636
0.811361
0.800029
0.788531
0.776748
0.764559
0.751852
0.738527
0.724507
0.709736
0.694186
0.677854
0.660758
0.642941
0.62446
0.605386
0.585802
0.565793
0.54545
0.524861
0.504114
0.483289
0.462464
0.441709
0.421088
0.400657
0.380467
0.360561
0.340979
0.321756
0.30292
0.284501
0.266522
0.249006
0.231975
0.21545
0.199452
0.183999
0.169113
0.154814
0.14112
0.128053
0.115631
0.103872
0.092793
0.0824079
0.0727283
0.0637616
0.0555106
0.047973
0.0411401
0.034997
0.029522
0.0246874
0.0204591
0.0167981
0.0136609
0.0110014
0.00877141
0.00692248
0.00540695
0.00417905
0.00319583
0.00241783
0.00180952
0.00133958
0.000980889
0.000710392
0.000508855
0.000360498
0.000252594
0.000175049
0.000119984
8.13431e-05
5.4546e-05
3.61854e-05
2.37208e-05
1.55138e-05
9.34944e-06
9.34944e-06
0.99999
1.00001
0.999544
0.998171
0.995436
0.991089
0.985125
0.977696
0.969019
0.959326
0.94884
0.937759
0.926259
0.91449
0.902576
0.890621
0.878707
0.866901
0.855255
0.843803
0.832566
0.821546
0.810722
0.800058
0.789493
0.778951
0.768339
0.757558
0.746505
0.73508
0.723192
0.710765
0.697738
0.684072
0.669745
0.654757
0.639122
0.622873
0.606055
0.588722
0.570937
0.552766
0.53428
0.515546
0.496632
0.477604
0.458523
0.439444
0.420419
0.401497
0.382719
0.364124
0.345747
0.327618
0.309768
0.292222
0.275006
0.258144
0.241658
0.225572
0.209908
0.194687
0.179933
0.165667
0.151912
0.138691
0.126027
0.113943
0.102461
0.0916036
0.081391
0.0718411
0.0629687
0.054784
0.0472917
0.04049
0.0343699
0.028915
0.024101
0.0198967
0.0162644
0.0131611
0.0105402
0.00835245
0.00654813
0.00507799
0.0038948
0.00295427
0.00221592
0.0016435
0.00120525
0.000873911
0.000626515
0.00044409
0.000311237
0.000215676
0.000147778
0.000100141
6.70197e-05
4.47861e-05
2.74349e-05
2.74349e-05
1.00047
0.999533
0.995342
0.988481
0.979264
0.968242
0.956033
0.943149
0.929951
0.916682
0.903497
0.890497
0.877746
0.865283
0.853133
0.841311
0.829823
0.818673
0.80786
0.79738
0.787225
0.777383
0.767835
0.758553
0.749499
0.740625
0.731872
0.723171
0.714449
0.705624
0.696617
0.68735
0.677752
0.667759
0.657318
0.64639
0.634948
0.622977
0.610475
0.59745
0.583922
0.569917
0.555468
0.540613
0.525392
0.50985
0.494028
0.47797
0.461719
0.445313
0.428791
0.41219
0.395543
0.378882
0.362238
0.34564
0.329117
0.312694
0.2964
0.280259
0.2643
0.248547
0.233027
0.217766
0.202793
0.188134
0.173819
0.159881
0.146351
0.133268
0.120669
0.108596
0.0970914
0.0861972
0.0759537
0.0663972
0.0575577
0.0494567
0.0421059
0.0355055
0.0296439
0.024498
0.0200338
0.016208
0.0129699
0.0102638
0.0080313
0.00621315
0.00475168
0.0035922
0.0026843
0.00198264
0.00144742
0.00104444
0.000744924
0.000525169
0.000365969
0.000252153
0.000171506
0.000116527
7.24333e-05
7.24333e-05
1.00913
0.990874
0.963593
0.936344
0.910574
0.88679
0.865195
0.845729
0.828186
0.812315
0.797874
0.784649
0.77246
0.761157
0.750619
0.740743
0.731448
0.722666
0.714341
0.706426
0.698883
0.691676
0.684775
0.67815
0.67177
0.665603
0.659611
0.653753
0.647983
0.642248
0.636495
0.630666
0.624703
0.618549
0.612148
0.605449
0.598408
0.590986
0.583149
0.574874
0.566143
0.556945
0.547276
0.537138
0.526537
0.515484
0.503994
0.492082
0.479769
0.467076
0.454023
0.440635
0.426933
0.412944
0.398692
0.384201
0.3695
0.354615
0.339575
0.324409
0.309147
0.293819
0.278458
0.263096
0.247765
0.2325
0.217337
0.202314
0.187475
0.172865
0.158538
0.14455
0.130966
0.117852
0.105279
0.0933162
0.0820311
0.0714835
0.0617236
0.0527883
0.0446999
0.0374636
0.0310684
0.025487
0.0206782
0.0165887
0.0131569
0.0103151
0.00799342
0.006122
0.00463376
0.00346607
0.00256211
0.00187161
0.00135113
0.000963949
0.000679658
0.000473732
0.000325874
0.000223979
0.000140741
0.000140741
1.10476
0.895237
0.791779
0.734418
0.698349
0.673559
0.65547
0.641661
0.630713
0.621752
0.614215
0.607733
0.602055
0.597005
0.592456
0.588315
0.584512
0.580993
0.577715
0.574645
0.571757
0.569029
0.566441
0.563978
0.561625
0.559367
0.557186
0.555065
0.552983
0.550914
0.548832
0.546703
0.544495
0.542168
0.539684
0.537003
0.534082
0.530881
0.527362
0.523487
0.519222
0.514534
0.509396
0.503784
0.497676
0.491055
0.483908
0.476227
0.468004
0.459237
0.449929
0.440083
0.429708
0.418817
0.407423
0.395546
0.383208
0.370435
0.357255
0.343699
0.329802
0.3156
0.301131
0.286435
0.271553
0.256526
0.2414
0.226222
0.211042
0.195917
0.180909
0.166087
0.151527
0.137313
0.123534
0.110279
0.0976391
0.0856984
0.0745326
0.0642042
0.0547594
0.0462253
0.0386095
0.0318992
0.0260638
0.0210561
0.0168162
0.0132749
0.0103571
0.00798566
0.00608456
0.00458117
0.00340834
0.00250571
0.00182031
0.00130677
0.000927037
0.000650084
0.00044984
0.000311056
0.0001966
0.0001966
-0.104763
0.104763
0.208221
0.265582
0.301651
0.326441
0.34453
0.358339
0.369287
0.378249
0.385785
0.392267
0.397945
0.402995
0.407544
0.411685
0.415488
0.419007
0.422285
0.425355
0.428243
0.430971
0.433557
0.436014
0.438354
0.440585
0.442713
0.444741
0.446669
0.448493
0.450206
0.451798
0.453253
0.454553
0.455674
0.456589
0.457268
0.457678
0.457782
0.457543
0.456921
0.455876
0.454371
0.452365
0.449824
0.446713
0.443001
0.438661
0.433671
0.428013
0.421673
0.414645
0.406928
0.398525
0.389447
0.37971
0.369337
0.358355
0.346797
0.3347
0.322105
0.309058
0.295606
0.281799
0.267688
0.253327
0.23877
0.224075
0.209302
0.194517
0.179791
0.165201
0.150831
0.136771
0.123114
0.109957
0.0973942
0.0855138
0.0743946
0.064102
0.0546844
0.0461708
0.0385702
0.0318712
0.026044
0.0210422
0.0168066
0.0132683
0.0103526
0.00798263
0.00608254
0.00457983
0.00340747
0.00250514
0.00181995
0.00130654
0.000926893
0.000649994
0.000449784
0.000311022
0.000196581
0.000196581
-0.00912621
0.00912621
0.036407
0.0636558
0.0894265
0.11321
0.134805
0.154271
0.171814
0.187685
0.202126
0.215351
0.22754
0.238843
0.249381
0.259257
0.268552
0.277334
0.285659
0.293574
0.301117
0.308321
0.315213
0.321816
0.32815
0.334231
0.340072
0.345685
0.351076
0.35625
0.361207
0.365945
0.370455
0.374725
0.378738
0.382471
0.385897
0.388986
0.3917
0.394
0.395844
0.397189
0.397989
0.398201
0.397781
0.39669
0.394891
0.392353
0.38905
0.384961
0.380076
0.374388
0.3679
0.360624
0.352575
0.343782
0.334276
0.324097
0.313291
0.301908
0.290002
0.277633
0.26486
0.251747
0.238356
0.224752
0.211001
0.197171
0.183329
0.169548
0.155904
0.142475
0.129343
0.116594
0.104311
0.0925784
0.0814733
0.0710654
0.0614129
0.0525596
0.0445329
0.0373429
0.0309819
0.0254257
0.020635
0.0165587
0.0131362
0.010301
0.00798385
0.00611559
0.00462951
0.00346327
0.00256029
0.00187044
0.00135038
0.000963477
0.000679363
0.00047355
0.000325762
0.000223911
0.000140703
0.000140703
-0.000467025
0.000467025
0.00465755
0.0115186
0.0207356
0.0317579
0.0439669
0.0568514
0.0700488
0.083318
0.0965028
0.109503
0.122254
0.134717
0.146867
0.158689
0.170177
0.181327
0.19214
0.20262
0.212769
0.222595
0.232103
0.241299
0.25019
0.258783
0.267082
0.275091
0.282811
0.29024
0.297374
0.304204
0.310715
0.316888
0.322699
0.328119
0.333112
0.337641
0.341663
0.345131
0.347999
0.350219
0.351745
0.352533
0.352543
0.351739
0.350094
0.347586
0.344201
0.339935
0.334794
0.328789
0.321945
0.314293
0.305872
0.29673
0.286922
0.276508
0.265552
0.254123
0.242293
0.230134
0.217721
0.205127
0.192425
0.179688
0.166987
0.154394
0.141976
0.129806
0.11795
0.106478
0.0954538
0.0849416
0.0749989
0.0656772
0.0570193
0.0490577
0.0418127
0.035292
0.0294899
0.0243879
0.0199558
0.0161532
0.0129318
0.0102376
0.00801342
0.00620107
0.0047436
0.00358685
0.00268079
0.00198036
0.00144595
0.0010435
0.000744334
0.000524799
0.00036574
0.000252013
0.000171421
0.000116476
7.24048e-05
7.24048e-05
9.54835e-06
-9.54835e-06
0.000456061
0.00182854
0.00456363
0.00891112
0.0148752
0.0223044
0.0309812
0.0406736
0.0511603
0.0622408
0.0737403
0.0855094
0.0974232
0.109379
0.121293
0.1331
0.144746
0.156191
0.167403
0.178361
0.189046
0.199446
0.209551
0.219354
0.228847
0.238022
0.246867
0.255369
0.263509
0.271265
0.278608
0.285504
0.291915
0.297798
0.303105
0.307786
0.311791
0.315068
0.317567
0.319244
0.320056
0.319969
0.318957
0.317
0.314091
0.310232
0.305435
0.299723
0.293129
0.285695
0.277475
0.268527
0.258918
0.248722
0.238016
0.226879
0.215396
0.20365
0.191726
0.179705
0.167668
0.155695
0.14386
0.132235
0.120887
0.109881
0.0992748
0.0891232
0.0794748
0.0703725
0.0618521
0.0539419
0.0466619
0.0400229
0.0340266
0.0286647
0.0239202
0.0197672
0.0161725
0.0130965
0.0104951
0.00832136
0.00652686
0.00506358
0.00388512
0.00294784
0.00221169
0.00164074
0.00120347
0.000872768
0.000625791
0.000443635
0.000310954
0.000215502
0.000147672
0.000100076
6.69813e-05
4.47632e-05
2.74223e-05
2.74223e-05
5.82414e-06
-5.82414e-06
4.36942e-05
0.000440584
0.00170024
0.00429825
0.00846288
0.0141997
0.0213849
0.0298313
0.039327
0.0496587
0.0606261
0.0720499
0.0837747
0.0956694
0.107626
0.119555
0.131388
0.143067
0.154551
0.165805
0.176804
0.187526
0.197956
0.208076
0.217872
0.227325
0.236415
0.245116
0.253398
0.261224
0.268554
0.275341
0.281535
0.28708
0.291923
0.296005
0.299273
0.301677
0.303169
0.303712
0.303276
0.301838
0.299391
0.295936
0.291487
0.286068
0.279716
0.27248
0.264417
0.255592
0.246082
0.235965
0.225327
0.214258
0.202849
0.191191
0.179377
0.167496
0.155637
0.143884
0.132318
0.121013
0.110041
0.0994661
0.0893458
0.0797314
0.070666
0.0621851
0.0543151
0.0470736
0.0404691
0.0345005
0.0291578
0.0244225
0.0202681
0.0166615
0.0135642
0.0109335
0.00872415
0.0068899
0.00538469
0.00416398
0.00318573
0.00241111
0.0018051
0.0013367
0.000979027
0.000709201
0.0005081
0.000360024
0.000252299
0.000174868
0.000119873
8.1276e-05
5.45059e-05
3.61615e-05
2.37068e-05
1.55056e-05
9.34501e-06
9.34501e-06
5.82414e-06
-5.82414e-06
4.36942e-05
0.000440584
0.00170024
0.00429825
0.00846288
0.0141997
0.0213849
0.0298313
0.039327
0.0496587
0.0606261
0.0720499
0.0837747
0.0956694
0.107626
0.119555
0.131388
0.143067
0.154551
0.165805
0.176804
0.187526
0.197956
0.208076
0.217872
0.227325
0.236415
0.245116
0.253398
0.261224
0.268554
0.275341
0.281535
0.28708
0.291923
0.296005
0.299273
0.301677
0.303169
0.303712
0.303276
0.301838
0.299391
0.295936
0.291487
0.286068
0.279716
0.27248
0.264417
0.255592
0.246082
0.235965
0.225327
0.214258
0.202849
0.191191
0.179377
0.167496
0.155637
0.143884
0.132318
0.121013
0.110041
0.0994661
0.0893458
0.0797314
0.070666
0.0621851
0.0543151
0.0470736
0.0404691
0.0345005
0.0291578
0.0244225
0.0202681
0.0166615
0.0135642
0.0109335
0.00872415
0.0068899
0.00538469
0.00416398
0.00318573
0.00241111
0.0018051
0.0013367
0.000979027
0.000709201
0.0005081
0.000360024
0.000252299
0.000174868
0.000119873
8.1276e-05
5.45059e-05
3.61615e-05
2.37068e-05
1.55056e-05
9.34501e-06
9.34501e-06
