# vtk DataFile Version 2.0
FlowField
ASCII
DATASET STRUCTURED_GRID
DIMENSIONS 102 1 12 
POINTS 1224 double
0 0 0
0.4 0 0
0.8 0 0
1.2 0 0
1.6 0 0
2 0 0
2.4 0 0
2.8 0 0
3.2 0 0
3.6 0 0
4 0 0
4.4 0 0
4.8 0 0
5.2 0 0
5.6 0 0
6 0 0
6.4 0 0
6.8 0 0
7.2 0 0
7.6 0 0
8 0 0
8.4 0 0
8.8 0 0
9.2 0 0
9.6 0 0
10 0 0
10.4 0 0
10.8 0 0
11.2 0 0
11.6 0 0
12 0 0
12.4 0 0
12.8 0 0
13.2 0 0
13.6 0 0
14 0 0
14.4 0 0
14.8 0 0
15.2 0 0
15.6 0 0
16 0 0
16.4 0 0
16.8 0 0
17.2 0 0
17.6 0 0
18 0 0
18.4 0 0
18.8 0 0
19.2 0 0
19.6 0 0
20 0 0
20.4 0 0
20.8 0 0
21.2 0 0
21.6 0 0
22 0 0
22.4 0 0
22.8 0 0
23.2 0 0
23.6 0 0
24 0 0
24.4 0 0
24.8 0 0
25.2 0 0
25.6 0 0
26 0 0
26.4 0 0
26.8 0 0
27.2 0 0
27.6 0 0
28 0 0
28.4 0 0
28.8 0 0
29.2 0 0
29.6 0 0
30 0 0
30.4 0 0
30.8 0 0
31.2 0 0
31.6 0 0
32 0 0
32.4 0 0
32.8 0 0
33.2 0 0
33.6 0 0
34 0 0
34.4 0 0
34.8 0 0
35.2 0 0
35.6 0 0
36 0 0
36.4 0 0
36.8 0 0
37.2 0 0
37.6 0 0
38 0 0
38.4 0 0
38.8 0 0
39.2 0 0
39.6 0 0
40 0 0
40.4 0 0
0 0.1 0
0.4 0.1 0
0.8 0.1 0
1.2 0.1 0
1.6 0.1 0
2 0.1 0
2.4 0.1 0
2.8 0.1 0
3.2 0.1 0
3.6 0.1 0
4 0.1 0
4.4 0.1 0
4.8 0.1 0
5.2 0.1 0
5.6 0.1 0
6 0.1 0
6.4 0.1 0
6.8 0.1 0
7.2 0.1 0
7.6 0.1 0
8 0.1 0
8.4 0.1 0
8.8 0.1 0
9.2 0.1 0
9.6 0.1 0
10 0.1 0
10.4 0.1 0
10.8 0.1 0
11.2 0.1 0
11.6 0.1 0
12 0.1 0
12.4 0.1 0
12.8 0.1 0
13.2 0.1 0
13.6 0.1 0
14 0.1 0
14.4 0.1 0
14.8 0.1 0
15.2 0.1 0
15.6 0.1 0
16 0.1 0
16.4 0.1 0
16.8 0.1 0
17.2 0.1 0
17.6 0.1 0
18 0.1 0
18.4 0.1 0
18.8 0.1 0
19.2 0.1 0
19.6 0.1 0
20 0.1 0
20.4 0.1 0
20.8 0.1 0
21.2 0.1 0
21.6 0.1 0
22 0.1 0
22.4 0.1 0
22.8 0.1 0
23.2 0.1 0
23.6 0.1 0
24 0.1 0
24.4 0.1 0
24.8 0.1 0
25.2 0.1 0
25.6 0.1 0
26 0.1 0
26.4 0.1 0
26.8 0.1 0
27.2 0.1 0
27.6 0.1 0
28 0.1 0
28.4 0.1 0
28.8 0.1 0
29.2 0.1 0
29.6 0.1 0
30 0.1 0
30.4 0.1 0
30.8 0.1 0
31.2 0.1 0
31.6 0.1 0
32 0.1 0
32.4 0.1 0
32.8 0.1 0
33.2 0.1 0
33.6 0.1 0
34 0.1 0
34.4 0.1 0
34.8 0.1 0
35.2 0.1 0
35.6 0.1 0
36 0.1 0
36.4 0.1 0
36.8 0.1 0
37.2 0.1 0
37.6 0.1 0
38 0.1 0
38.4 0.1 0
38.8 0.1 0
39.2 0.1 0
39.6 0.1 0
40 0.1 0
40.4 0.1 0
0 0.2 0
0.4 0.2 0
0.8 0.2 0
1.2 0.2 0
1.6 0.2 0
2 0.2 0
2.4 0.2 0
2.8 0.2 0
3.2 0.2 0
3.6 0.2 0
4 0.2 0
4.4 0.2 0
4.8 0.2 0
5.2 0.2 0
5.6 0.2 0
6 0.2 0
6.4 0.2 0
6.8 0.2 0
7.2 0.2 0
7.6 0.2 0
8 0.2 0
8.4 0.2 0
8.8 0.2 0
9.2 0.2 0
9.6 0.2 0
10 0.2 0
10.4 0.2 0
10.8 0.2 0
11.2 0.2 0
11.6 0.2 0
12 0.2 0
12.4 0.2 0
12.8 0.2 0
13.2 0.2 0
13.6 0.2 0
14 0.2 0
14.4 0.2 0
14.8 0.2 0
15.2 0.2 0
15.6 0.2 0
16 0.2 0
16.4 0.2 0
16.8 0.2 0
17.2 0.2 0
17.6 0.2 0
18 0.2 0
18.4 0.2 0
18.8 0.2 0
19.2 0.2 0
19.6 0.2 0
20 0.2 0
20.4 0.2 0
20.8 0.2 0
21.2 0.2 0
21.6 0.2 0
22 0.2 0
22.4 0.2 0
22.8 0.2 0
23.2 0.2 0
23.6 0.2 0
24 0.2 0
24.4 0.2 0
24.8 0.2 0
25.2 0.2 0
25.6 0.2 0
26 0.2 0
26.4 0.2 0
26.8 0.2 0
27.2 0.2 0
27.6 0.2 0
28 0.2 0
28.4 0.2 0
28.8 0.2 0
29.2 0.2 0
29.6 0.2 0
30 0.2 0
30.4 0.2 0
30.8 0.2 0
31.2 0.2 0
31.6 0.2 0
32 0.2 0
32.4 0.2 0
32.8 0.2 0
33.2 0.2 0
33.6 0.2 0
34 0.2 0
34.4 0.2 0
34.8 0.2 0
35.2 0.2 0
35.6 0.2 0
36 0.2 0
36.4 0.2 0
36.8 0.2 0
37.2 0.2 0
37.6 0.2 0
38 0.2 0
38.4 0.2 0
38.8 0.2 0
39.2 0.2 0
39.6 0.2 0
40 0.2 0
40.4 0.2 0
0 0.3 0
0.4 0.3 0
0.8 0.3 0
1.2 0.3 0
1.6 0.3 0
2 0.3 0
2.4 0.3 0
2.8 0.3 0
3.2 0.3 0
3.6 0.3 0
4 0.3 0
4.4 0.3 0
4.8 0.3 0
5.2 0.3 0
5.6 0.3 0
6 0.3 0
6.4 0.3 0
6.8 0.3 0
7.2 0.3 0
7.6 0.3 0
8 0.3 0
8.4 0.3 0
8.8 0.3 0
9.2 0.3 0
9.6 0.3 0
10 0.3 0
10.4 0.3 0
10.8 0.3 0
11.2 0.3 0
11.6 0.3 0
12 0.3 0
12.4 0.3 0
12.8 0.3 0
13.2 0.3 0
13.6 0.3 0
14 0.3 0
14.4 0.3 0
14.8 0.3 0
15.2 0.3 0
15.6 0.3 0
16 0.3 0
16.4 0.3 0
16.8 0.3 0
17.2 0.3 0
17.6 0.3 0
18 0.3 0
18.4 0.3 0
18.8 0.3 0
19.2 0.3 0
19.6 0.3 0
20 0.3 0
20.4 0.3 0
20.8 0.3 0
21.2 0.3 0
21.6 0.3 0
22 0.3 0
22.4 0.3 0
22.8 0.3 0
23.2 0.3 0
23.6 0.3 0
24 0.3 0
24.4 0.3 0
24.8 0.3 0
25.2 0.3 0
25.6 0.3 0
26 0.3 0
26.4 0.3 0
26.8 0.3 0
27.2 0.3 0
27.6 0.3 0
28 0.3 0
28.4 0.3 0
28.8 0.3 0
29.2 0.3 0
29.6 0.3 0
30 0.3 0
30.4 0.3 0
30.8 0.3 0
31.2 0.3 0
31.6 0.3 0
32 0.3 0
32.4 0.3 0
32.8 0.3 0
33.2 0.3 0
33.6 0.3 0
34 0.3 0
34.4 0.3 0
34.8 0.3 0
35.2 0.3 0
35.6 0.3 0
36 0.3 0
36.4 0.3 0
36.8 0.3 0
37.2 0.3 0
37.6 0.3 0
38 0.3 0
38.4 0.3 0
38.8 0.3 0
39.2 0.3 0
39.6 0.3 0
40 0.3 0
40.4 0.3 0
0 0.4 0
0.4 0.4 0
0.8 0.4 0
1.2 0.4 0
1.6 0.4 0
2 0.4 0
2.4 0.4 0
2.8 0.4 0
3.2 0.4 0
3.6 0.4 0
4 0.4 0
4.4 0.4 0
4.8 0.4 0
5.2 0.4 0
5.6 0.4 0
6 0.4 0
6.4 0.4 0
6.8 0.4 0
7.2 0.4 0
7.6 0.4 0
8 0.4 0
8.4 0.4 0
8.8 0.4 0
9.2 0.4 0
9.6 0.4 0
10 0.4 0
10.4 0.4 0
10.8 0.4 0
11.2 0.4 0
11.6 0.4 0
12 0.4 0
12.4 0.4 0
12.8 0.4 0
13.2 0.4 0
13.6 0.4 0
14 0.4 0
14.4 0.4 0
14.8 0.4 0
15.2 0.4 0
15.6 0.4 0
16 0.4 0
16.4 0.4 0
16.8 0.4 0
17.2 0.4 0
17.6 0.4 0
18 0.4 0
18.4 0.4 0
18.8 0.4 0
19.2 0.4 0
19.6 0.4 0
20 0.4 0
20.4 0.4 0
20.8 0.4 0
21.2 0.4 0
21.6 0.4 0
22 0.4 0
22.4 0.4 0
22.8 0.4 0
23.2 0.4 0
23.6 0.4 0
24 0.4 0
24.4 0.4 0
24.8 0.4 0
25.2 0.4 0
25.6 0.4 0
26 0.4 0
26.4 0.4 0
26.8 0.4 0
27.2 0.4 0
27.6 0.4 0
28 0.4 0
28.4 0.4 0
28.8 0.4 0
29.2 0.4 0
29.6 0.4 0
30 0.4 0
30.4 0.4 0
30.8 0.4 0
31.2 0.4 0
31.6 0.4 0
32 0.4 0
32.4 0.4 0
32.8 0.4 0
33.2 0.4 0
33.6 0.4 0
34 0.4 0
34.4 0.4 0
34.8 0.4 0
35.2 0.4 0
35.6 0.4 0
36 0.4 0
36.4 0.4 0
36.8 0.4 0
37.2 0.4 0
37.6 0.4 0
38 0.4 0
38.4 0.4 0
38.8 0.4 0
39.2 0.4 0
39.6 0.4 0
40 0.4 0
40.4 0.4 0
0 0.5 0
0.4 0.5 0
0.8 0.5 0
1.2 0.5 0
1.6 0.5 0
2 0.5 0
2.4 0.5 0
2.8 0.5 0
3.2 0.5 0
3.6 0.5 0
4 0.5 0
4.4 0.5 0
4.8 0.5 0
5.2 0.5 0
5.6 0.5 0
6 0.5 0
6.4 0.5 0
6.8 0.5 0
7.2 0.5 0
7.6 0.5 0
8 0.5 0
8.4 0.5 0
8.8 0.5 0
9.2 0.5 0
9.6 0.5 0
10 0.5 0
10.4 0.5 0
10.8 0.5 0
11.2 0.5 0
11.6 0.5 0
12 0.5 0
12.4 0.5 0
12.8 0.5 0
13.2 0.5 0
13.6 0.5 0
14 0.5 0
14.4 0.5 0
14.8 0.5 0
15.2 0.5 0
15.6 0.5 0
16 0.5 0
16.4 0.5 0
16.8 0.5 0
17.2 0.5 0
17.6 0.5 0
18 0.5 0
18.4 0.5 0
18.8 0.5 0
19.2 0.5 0
19.6 0.5 0
20 0.5 0
20.4 0.5 0
20.8 0.5 0
21.2 0.5 0
21.6 0.5 0
22 0.5 0
22.4 0.5 0
22.8 0.5 0
23.2 0.5 0
23.6 0.5 0
24 0.5 0
24.4 0.5 0
24.8 0.5 0
25.2 0.5 0
25.6 0.5 0
26 0.5 0
26.4 0.5 0
26.8 0.5 0
27.2 0.5 0
27.6 0.5 0
28 0.5 0
28.4 0.5 0
28.8 0.5 0
29.2 0.5 0
29.6 0.5 0
30 0.5 0
30.4 0.5 0
30.8 0.5 0
31.2 0.5 0
31.6 0.5 0
32 0.5 0
32.4 0.5 0
32.8 0.5 0
33.2 0.5 0
33.6 0.5 0
34 0.5 0
34.4 0.5 0
34.8 0.5 0
35.2 0.5 0
35.6 0.5 0
36 0.5 0
36.4 0.5 0
36.8 0.5 0
37.2 0.5 0
37.6 0.5 0
38 0.5 0
38.4 0.5 0
38.8 0.5 0
39.2 0.5 0
39.6 0.5 0
40 0.5 0
40.4 0.5 0
0 0.6 0
0.4 0.6 0
0.8 0.6 0
1.2 0.6 0
1.6 0.6 0
2 0.6 0
2.4 0.6 0
2.8 0.6 0
3.2 0.6 0
3.6 0.6 0
4 0.6 0
4.4 0.6 0
4.8 0.6 0
5.2 0.6 0
5.6 0.6 0
6 0.6 0
6.4 0.6 0
6.8 0.6 0
7.2 0.6 0
7.6 0.6 0
8 0.6 0
8.4 0.6 0
8.8 0.6 0
9.2 0.6 0
9.6 0.6 0
10 0.6 0
10.4 0.6 0
10.8 0.6 0
11.2 0.6 0
11.6 0.6 0
12 0.6 0
12.4 0.6 0
12.8 0.6 0
13.2 0.6 0
13.6 0.6 0
14 0.6 0
14.4 0.6 0
14.8 0.6 0
15.2 0.6 0
15.6 0.6 0
16 0.6 0
16.4 0.6 0
16.8 0.6 0
17.2 0.6 0
17.6 0.6 0
18 0.6 0
18.4 0.6 0
18.8 0.6 0
19.2 0.6 0
19.6 0.6 0
20 0.6 0
20.4 0.6 0
20.8 0.6 0
21.2 0.6 0
21.6 0.6 0
22 0.6 0
22.4 0.6 0
22.8 0.6 0
23.2 0.6 0
23.6 0.6 0
24 0.6 0
24.4 0.6 0
24.8 0.6 0
25.2 0.6 0
25.6 0.6 0
26 0.6 0
26.4 0.6 0
26.8 0.6 0
27.2 0.6 0
27.6 0.6 0
28 0.6 0
28.4 0.6 0
28.8 0.6 0
29.2 0.6 0
29.6 0.6 0
30 0.6 0
30.4 0.6 0
30.8 0.6 0
31.2 0.6 0
31.6 0.6 0
32 0.6 0
32.4 0.6 0
32.8 0.6 0
33.2 0.6 0
33.6 0.6 0
34 0.6 0
34.4 0.6 0
34.8 0.6 0
35.2 0.6 0
35.6 0.6 0
36 0.6 0
36.4 0.6 0
36.8 0.6 0
37.2 0.6 0
37.6 0.6 0
38 0.6 0
38.4 0.6 0
38.8 0.6 0
39.2 0.6 0
39.6 0.6 0
40 0.6 0
40.4 0.6 0
0 0.7 0
0.4 0.7 0
0.8 0.7 0
1.2 0.7 0
1.6 0.7 0
2 0.7 0
2.4 0.7 0
2.8 0.7 0
3.2 0.7 0
3.6 0.7 0
4 0.7 0
4.4 0.7 0
4.8 0.7 0
5.2 0.7 0
5.6 0.7 0
6 0.7 0
6.4 0.7 0
6.8 0.7 0
7.2 0.7 0
7.6 0.7 0
8 0.7 0
8.4 0.7 0
8.8 0.7 0
9.2 0.7 0
9.6 0.7 0
10 0.7 0
10.4 0.7 0
10.8 0.7 0
11.2 0.7 0
11.6 0.7 0
12 0.7 0
12.4 0.7 0
12.8 0.7 0
13.2 0.7 0
13.6 0.7 0
14 0.7 0
14.4 0.7 0
14.8 0.7 0
15.2 0.7 0
15.6 0.7 0
16 0.7 0
16.4 0.7 0
16.8 0.7 0
17.2 0.7 0
17.6 0.7 0
18 0.7 0
18.4 0.7 0
18.8 0.7 0
19.2 0.7 0
19.6 0.7 0
20 0.7 0
20.4 0.7 0
20.8 0.7 0
21.2 0.7 0
21.6 0.7 0
22 0.7 0
22.4 0.7 0
22.8 0.7 0
23.2 0.7 0
23.6 0.7 0
24 0.7 0
24.4 0.7 0
24.8 0.7 0
25.2 0.7 0
25.6 0.7 0
26 0.7 0
26.4 0.7 0
26.8 0.7 0
27.2 0.7 0
27.6 0.7 0
28 0.7 0
28.4 0.7 0
28.8 0.7 0
29.2 0.7 0
29.6 0.7 0
30 0.7 0
30.4 0.7 0
30.8 0.7 0
31.2 0.7 0
31.6 0.7 0
32 0.7 0
32.4 0.7 0
32.8 0.7 0
33.2 0.7 0
33.6 0.7 0
34 0.7 0
34.4 0.7 0
34.8 0.7 0
35.2 0.7 0
35.6 0.7 0
36 0.7 0
36.4 0.7 0
36.8 0.7 0
37.2 0.7 0
37.6 0.7 0
38 0.7 0
38.4 0.7 0
38.8 0.7 0
39.2 0.7 0
39.6 0.7 0
40 0.7 0
40.4 0.7 0
0 0.8 0
0.4 0.8 0
0.8 0.8 0
1.2 0.8 0
1.6 0.8 0
2 0.8 0
2.4 0.8 0
2.8 0.8 0
3.2 0.8 0
3.6 0.8 0
4 0.8 0
4.4 0.8 0
4.8 0.8 0
5.2 0.8 0
5.6 0.8 0
6 0.8 0
6.4 0.8 0
6.8 0.8 0
7.2 0.8 0
7.6 0.8 0
8 0.8 0
8.4 0.8 0
8.8 0.8 0
9.2 0.8 0
9.6 0.8 0
10 0.8 0
10.4 0.8 0
10.8 0.8 0
11.2 0.8 0
11.6 0.8 0
12 0.8 0
12.4 0.8 0
12.8 0.8 0
13.2 0.8 0
13.6 0.8 0
14 0.8 0
14.4 0.8 0
14.8 0.8 0
15.2 0.8 0
15.6 0.8 0
16 0.8 0
16.4 0.8 0
16.8 0.8 0
17.2 0.8 0
17.6 0.8 0
18 0.8 0
18.4 0.8 0
18.8 0.8 0
19.2 0.8 0
19.6 0.8 0
20 0.8 0
20.4 0.8 0
20.8 0.8 0
21.2 0.8 0
21.6 0.8 0
22 0.8 0
22.4 0.8 0
22.8 0.8 0
23.2 0.8 0
23.6 0.8 0
24 0.8 0
24.4 0.8 0
24.8 0.8 0
25.2 0.8 0
25.6 0.8 0
26 0.8 0
26.4 0.8 0
26.8 0.8 0
27.2 0.8 0
27.6 0.8 0
28 0.8 0
28.4 0.8 0
28.8 0.8 0
29.2 0.8 0
29.6 0.8 0
30 0.8 0
30.4 0.8 0
30.8 0.8 0
31.2 0.8 0
31.6 0.8 0
32 0.8 0
32.4 0.8 0
32.8 0.8 0
33.2 0.8 0
33.6 0.8 0
34 0.8 0
34.4 0.8 0
34.8 0.8 0
35.2 0.8 0
35.6 0.8 0
36 0.8 0
36.4 0.8 0
36.8 0.8 0
37.2 0.8 0
37.6 0.8 0
38 0.8 0
38.4 0.8 0
38.8 0.8 0
39.2 0.8 0
39.6 0.8 0
40 0.8 0
40.4 0.8 0
0 0.9 0
0.4 0.9 0
0.8 0.9 0
1.2 0.9 0
1.6 0.9 0
2 0.9 0
2.4 0.9 0
2.8 0.9 0
3.2 0.9 0
3.6 0.9 0
4 0.9 0
4.4 0.9 0
4.8 0.9 0
5.2 0.9 0
5.6 0.9 0
6 0.9 0
6.4 0.9 0
6.8 0.9 0
7.2 0.9 0
7.6 0.9 0
8 0.9 0
8.4 0.9 0
8.8 0.9 0
9.2 0.9 0
9.6 0.9 0
10 0.9 0
10.4 0.9 0
10.8 0.9 0
11.2 0.9 0
11.6 0.9 0
12 0.9 0
12.4 0.9 0
12.8 0.9 0
13.2 0.9 0
13.6 0.9 0
14 0.9 0
14.4 0.9 0
14.8 0.9 0
15.2 0.9 0
15.6 0.9 0
16 0.9 0
16.4 0.9 0
16.8 0.9 0
17.2 0.9 0
17.6 0.9 0
18 0.9 0
18.4 0.9 0
18.8 0.9 0
19.2 0.9 0
19.6 0.9 0
20 0.9 0
20.4 0.9 0
20.8 0.9 0
21.2 0.9 0
21.6 0.9 0
22 0.9 0
22.4 0.9 0
22.8 0.9 0
23.2 0.9 0
23.6 0.9 0
24 0.9 0
24.4 0.9 0
24.8 0.9 0
25.2 0.9 0
25.6 0.9 0
26 0.9 0
26.4 0.9 0
26.8 0.9 0
27.2 0.9 0
27.6 0.9 0
28 0.9 0
28.4 0.9 0
28.8 0.9 0
29.2 0.9 0
29.6 0.9 0
30 0.9 0
30.4 0.9 0
30.8 0.9 0
31.2 0.9 0
31.6 0.9 0
32 0.9 0
32.4 0.9 0
32.8 0.9 0
33.2 0.9 0
33.6 0.9 0
34 0.9 0
34.4 0.9 0
34.8 0.9 0
35.2 0.9 0
35.6 0.9 0
36 0.9 0
36.4 0.9 0
36.8 0.9 0
37.2 0.9 0
37.6 0.9 0
38 0.9 0
38.4 0.9 0
38.8 0.9 0
39.2 0.9 0
39.6 0.9 0
40 0.9 0
40.4 0.9 0
0 1 0
0.4 1 0
0.8 1 0
1.2 1 0
1.6 1 0
2 1 0
2.4 1 0
2.8 1 0
3.2 1 0
3.6 1 0
4 1 0
4.4 1 0
4.8 1 0
5.2 1 0
5.6 1 0
6 1 0
6.4 1 0
6.8 1 0
7.2 1 0
7.6 1 0
8 1 0
8.4 1 0
8.8 1 0
9.2 1 0
9.6 1 0
10 1 0
10.4 1 0
10.8 1 0
11.2 1 0
11.6 1 0
12 1 0
12.4 1 0
12.8 1 0
13.2 1 0
13.6 1 0
14 1 0
14.4 1 0
14.8 1 0
15.2 1 0
15.6 1 0
16 1 0
16.4 1 0
16.8 1 0
17.2 1 0
17.6 1 0
18 1 0
18.4 1 0
18.8 1 0
19.2 1 0
19.6 1 0
20 1 0
20.4 1 0
20.8 1 0
21.2 1 0
21.6 1 0
22 1 0
22.4 1 0
22.8 1 0
23.2 1 0
23.6 1 0
24 1 0
24.4 1 0
24.8 1 0
25.2 1 0
25.6 1 0
26 1 0
26.4 1 0
26.8 1 0
27.2 1 0
27.6 1 0
28 1 0
28.4 1 0
28.8 1 0
29.2 1 0
29.6 1 0
30 1 0
30.4 1 0
30.8 1 0
31.2 1 0
31.6 1 0
32 1 0
32.4 1 0
32.8 1 0
33.2 1 0
33.6 1 0
34 1 0
34.4 1 0
34.8 1 0
35.2 1 0
35.6 1 0
36 1 0
36.4 1 0
36.8 1 0
37.2 1 0
37.6 1 0
38 1 0
38.4 1 0
38.8 1 0
39.2 1 0
39.6 1 0
40 1 0
40.4 1 0
0 1.1 0
0.4 1.1 0
0.8 1.1 0
1.2 1.1 0
1.6 1.1 0
2 1.1 0
2.4 1.1 0
2.8 1.1 0
3.2 1.1 0
3.6 1.1 0
4 1.1 0
4.4 1.1 0
4.8 1.1 0
5.2 1.1 0
5.6 1.1 0
6 1.1 0
6.4 1.1 0
6.8 1.1 0
7.2 1.1 0
7.6 1.1 0
8 1.1 0
8.4 1.1 0
8.8 1.1 0
9.2 1.1 0
9.6 1.1 0
10 1.1 0
10.4 1.1 0
10.8 1.1 0
11.2 1.1 0
11.6 1.1 0
12 1.1 0
12.4 1.1 0
12.8 1.1 0
13.2 1.1 0
13.6 1.1 0
14 1.1 0
14.4 1.1 0
14.8 1.1 0
15.2 1.1 0
15.6 1.1 0
16 1.1 0
16.4 1.1 0
16.8 1.1 0
17.2 1.1 0
17.6 1.1 0
18 1.1 0
18.4 1.1 0
18.8 1.1 0
19.2 1.1 0
19.6 1.1 0
20 1.1 0
20.4 1.1 0
20.8 1.1 0
21.2 1.1 0
21.6 1.1 0
22 1.1 0
22.4 1.1 0
22.8 1.1 0
23.2 1.1 0
23.6 1.1 0
24 1.1 0
24.4 1.1 0
24.8 1.1 0
25.2 1.1 0
25.6 1.1 0
26 1.1 0
26.4 1.1 0
26.8 1.1 0
27.2 1.1 0
27.6 1.1 0
28 1.1 0
28.4 1.1 0
28.8 1.1 0
29.2 1.1 0
29.6 1.1 0
30 1.1 0
30.4 1.1 0
30.8 1.1 0
31.2 1.1 0
31.6 1.1 0
32 1.1 0
32.4 1.1 0
32.8 1.1 0
33.2 1.1 0
33.6 1.1 0
34 1.1 0
34.4 1.1 0
34.8 1.1 0
35.2 1.1 0
35.6 1.1 0
36 1.1 0
36.4 1.1 0
36.8 1.1 0
37.2 1.1 0
37.6 1.1 0
38 1.1 0
38.4 1.1 0
38.8 1.1 0
39.2 1.1 0
39.6 1.1 0
40 1.1 0
40.4 1.1 0

POINT_DATA 1224

SCALARS v double
LOOKUP_TABLE default
0
0
0
0
0
0
0
0
0
0
0
0
0
0
0
0
0
0
0
0
0
0
0
0
0
0
0
0
0
0
0
0
0
0
0
0
0
0
0
0
0
0
0
0
0
0
0
0
0
0
0
0
0
0
0
0
0
0
0
0
0
0
0
0
0
0
0
0
0
0
0
0
0
0
0
0
0
0
0
0
0
0
0
0
0
0
0
0
0
0
0
0
0
0
0
0
0
0
0
0
0
0
0
0.0787075
0.0554406
0.0327103
0.0178113
0.00965827
0.00557767
0.0035471
0.00247032
0.00183777
0.00142578
0.00113505
0.00091849
0.000751459
0.00061962
0.000513875
0.000428065
0.000357809
0.000299884
0.000251863
0.000211871
0.000178446
0.000150443
0.000126939
0.000107175
9.05318e-05
7.65007e-05
6.46629e-05
5.46702e-05
4.62302e-05
3.90986e-05
3.30721e-05
2.79774e-05
2.36685e-05
2.00244e-05
1.69424e-05
1.43352e-05
1.21296e-05
1.02635e-05
8.6847e-06
7.34895e-06
6.2187e-06
5.26222e-06
4.45298e-06
3.76828e-06
3.18872e-06
2.69833e-06
2.28351e-06
1.93239e-06
1.63517e-06
1.38376e-06
1.17103e-06
9.90962e-07
8.38577e-07
7.09633e-07
6.00538e-07
5.08203e-07
4.30054e-07
3.63943e-07
3.07988e-07
2.60631e-07
2.20561e-07
1.86658e-07
1.57965e-07
1.33678e-07
1.13133e-07
9.57462e-08
8.10272e-08
6.85726e-08
5.80362e-08
4.91142e-08
4.15581e-08
3.516e-08
2.97414e-08
2.51507e-08
2.12562e-08
1.7945e-08
1.51368e-08
1.2758e-08
1.07264e-08
9.00075e-09
7.53333e-09
6.27775e-09
5.22531e-09
4.32644e-09
3.55921e-09
2.91604e-09
2.37374e-09
1.92489e-09
1.54358e-09
1.23355e-09
9.76326e-10
7.65405e-10
5.95178e-10
4.5996e-10
3.49775e-10
2.66548e-10
1.98092e-10
1.51501e-10
1.2847e-10
-4.29481e-11
-4.29481e-11
0
0.0668415
0.0608389
0.042293
0.0271276
0.0175004
0.0118521
0.00849207
0.00637032
0.00493628
0.00391077
0.00314663
0.00256041
0.00210109
0.00173541
0.00144065
0.00120071
0.00100386
0.000841372
0.00070657
0.000594281
0.000500444
0.000421831
0.000355845
0.000300368
0.000253666
0.00021431
0.000181117
0.000153103
0.000129448
0.000109466
9.25817e-05
7.831e-05
6.62435e-05
5.60405e-05
4.74116e-05
4.01133e-05
3.39397e-05
2.8717e-05
2.42987e-05
2.05606e-05
1.73978e-05
1.47217e-05
1.24575e-05
1.05416e-05
8.92032e-06
7.54853e-06
6.3878e-06
5.40545e-06
4.57418e-06
3.87085e-06
3.27565e-06
2.77195e-06
2.34571e-06
1.98503e-06
1.67982e-06
1.42152e-06
1.20295e-06
1.018e-06
8.6147e-07
7.29012e-07
6.16928e-07
5.22081e-07
4.41812e-07
3.73884e-07
3.16408e-07
2.67764e-07
2.26595e-07
1.91758e-07
1.62273e-07
1.3731e-07
1.16175e-07
9.82775e-08
8.3116e-08
7.02655e-08
5.93649e-08
5.01101e-08
4.22578e-08
3.55876e-08
2.99081e-08
2.50826e-08
2.09743e-08
1.74812e-08
1.45248e-08
1.20056e-08
9.87461e-09
8.07858e-09
6.57033e-09
5.30921e-09
4.25476e-09
3.38772e-09
2.67145e-09
2.0883e-09
1.61642e-09
1.23822e-09
9.35931e-10
7.04113e-10
5.16357e-10
3.94676e-10
2.69728e-10
-1.28699e-10
-1.28699e-10
0
0.0434614
0.0450425
0.0342517
0.0238914
0.0167606
0.0122647
0.00937329
0.00739328
0.0059502
0.00484989
0.00398638
0.00329625
0.00273789
0.00228214
0.00190763
0.00159821
0.00134144
0.00112762
0.000949047
0.000799549
0.000674143
0.000568779
0.00048014
0.000405493
0.000342575
0.000289507
0.000244718
0.000206898
0.00017495
0.000147955
0.000125141
0.000105853
8.95445e-05
7.57536e-05
6.40898e-05
5.42241e-05
4.58787e-05
3.88187e-05
3.28461e-05
2.77929e-05
2.35174e-05
1.99e-05
1.68393e-05
1.42493e-05
1.20578e-05
1.02035e-05
8.63439e-06
7.30652e-06
6.18295e-06
5.23221e-06
4.42765e-06
3.7468e-06
3.17066e-06
2.68313e-06
2.27057e-06
1.92143e-06
1.626e-06
1.37599e-06
1.16442e-06
9.85382e-07
8.3388e-07
7.05672e-07
5.97173e-07
5.05359e-07
4.27665e-07
3.61912e-07
3.06266e-07
2.59175e-07
2.19316e-07
1.85573e-07
1.57005e-07
1.32812e-07
1.12317e-07
9.49458e-08
8.02115e-08
6.77069e-08
5.7096e-08
4.80774e-08
4.04053e-08
3.38848e-08
2.83341e-08
2.36203e-08
1.96183e-08
1.62135e-08
1.33364e-08
1.09078e-08
8.86836e-09
7.158e-09
5.73291e-09
4.55565e-09
3.58497e-09
2.79332e-09
2.15176e-09
1.63664e-09
1.22709e-09
9.10278e-10
6.56885e-10
4.97281e-10
2.9709e-10
-1.68651e-10
-1.68651e-10
0
0.0210569
0.0230874
0.0183628
0.0133673
0.00978212
0.00744486
0.00588651
0.00477597
0.00393344
0.00326681
0.00272644
0.00228248
0.00191488
0.00160902
0.00135367
0.00113995
0.000960726
0.000810212
0.000683651
0.000577121
0.000487377
0.000411719
0.000347896
0.000294032
0.000248556
0.000210149
0.000177701
0.00015028
0.000127103
0.000107509
9.09421e-05
7.69326e-05
6.50848e-05
5.50641e-05
4.65878e-05
3.94176e-05
3.33517e-05
2.822e-05
2.38784e-05
2.0205e-05
1.70969e-05
1.44671e-05
1.2242e-05
1.03591e-05
8.76596e-06
7.41793e-06
6.27715e-06
5.3118e-06
4.495e-06
3.80381e-06
3.21888e-06
2.72391e-06
2.30506e-06
1.95063e-06
1.6507e-06
1.39688e-06
1.1821e-06
1.00034e-06
8.46531e-07
7.16376e-07
6.06235e-07
5.13026e-07
4.34146e-07
3.67399e-07
3.10912e-07
2.63106e-07
2.2265e-07
1.88411e-07
1.59428e-07
1.34892e-07
1.14118e-07
9.65256e-08
8.16198e-08
6.89852e-08
5.82678e-08
4.91737e-08
4.14563e-08
3.48936e-08
2.93131e-08
2.45686e-08
2.05306e-08
1.71029e-08
1.41864e-08
1.17079e-08
9.6139e-09
7.84522e-09
6.35912e-09
5.1106e-09
4.07252e-09
3.2127e-09
2.50422e-09
1.92535e-09
1.45659e-09
1.08063e-09
7.82753e-10
5.52909e-10
3.72742e-10
2.6959e-10
1.27379e-10
-1.1086e-10
-1.1086e-10
0
2.27252e-09
-1.60168e-08
-1.96587e-08
-1.47617e-08
-5.15143e-09
4.50206e-10
-4.81641e-09
-8.35238e-09
-3.23864e-09
2.31336e-09
3.65542e-09
1.19917e-09
-3.42235e-09
-3.23859e-09
1.62209e-09
3.42656e-09
2.65062e-09
1.40543e-09
-1.2905e-09
-2.42967e-09
6.75412e-11
2.53634e-09
2.24321e-09
7.83306e-10
-8.96613e-11
8.94865e-11
5.80334e-10
6.98364e-10
7.62639e-10
9.18773e-10
7.13194e-10
3.98723e-10
4.3312e-10
4.67942e-10
4.21151e-10
3.96077e-10
3.19239e-10
2.87976e-10
3.02159e-10
2.33655e-10
1.74646e-10
2.01804e-10
1.78195e-10
1.04636e-10
1.34035e-10
1.55776e-10
9.31669e-11
7.81348e-11
1.03258e-10
9.21076e-11
7.38029e-11
6.45311e-11
6.60058e-11
6.59278e-11
5.62028e-11
5.23904e-11
5.34267e-11
4.8183e-11
4.40292e-11
4.5115e-11
4.37861e-11
3.87055e-11
3.48175e-11
3.13959e-11
2.47296e-11
1.70177e-11
9.37733e-12
-1.14042e-12
-1.39955e-11
-2.80213e-11
-4.22509e-11
-5.76234e-11
-7.50678e-11
-9.27117e-11
-1.12346e-10
-1.29912e-10
-1.45626e-10
-1.65598e-10
-1.83568e-10
-2.00509e-10
-2.15442e-10
-2.26904e-10
-2.42883e-10
-2.5555e-10
-2.64688e-10
-2.72365e-10
-2.79015e-10
-2.85899e-10
-2.88634e-10
-2.9144e-10
-2.93365e-10
-2.94247e-10
-2.9297e-10
-2.90429e-10
-2.85709e-10
-2.77351e-10
-2.63052e-10
-2.27244e-10
-1.88483e-10
2.32683e-11
2.32683e-11
0
-0.0210569
-0.0230874
-0.0183628
-0.0133673
-0.00978212
-0.00744486
-0.00588652
-0.00477598
-0.00393344
-0.00326681
-0.00272644
-0.00228248
-0.00191489
-0.00160902
-0.00135366
-0.00113994
-0.000960723
-0.000810211
-0.000683653
-0.000577124
-0.000487376
-0.000411715
-0.000347893
-0.000294031
-0.000248556
-0.000210149
-0.0001777
-0.000150279
-0.000127101
-0.000107507
-9.09409e-05
-7.69319e-05
-6.5084e-05
-5.50633e-05
-4.65871e-05
-3.94169e-05
-3.33511e-05
-2.82195e-05
-2.38778e-05
-2.02045e-05
-1.70966e-05
-1.44668e-05
-1.22417e-05
-1.03589e-05
-8.76574e-06
-7.41767e-06
-6.27697e-06
-5.31166e-06
-4.49483e-06
-3.80364e-06
-3.21874e-06
-2.72379e-06
-2.30494e-06
-1.95052e-06
-1.65059e-06
-1.39678e-06
-1.182e-06
-1.00025e-06
-8.46448e-07
-7.16292e-07
-6.06153e-07
-5.12951e-07
-4.34079e-07
-3.67338e-07
-3.10862e-07
-2.6307e-07
-2.22629e-07
-1.88408e-07
-1.59447e-07
-1.34937e-07
-1.1419e-07
-9.6625e-08
-8.17504e-08
-6.91475e-08
-5.84659e-08
-4.94049e-08
-4.17158e-08
-3.51885e-08
-2.96418e-08
-2.49273e-08
-2.09175e-08
-1.75119e-08
-1.46219e-08
-1.21678e-08
-1.00907e-08
-8.33655e-09
-6.86224e-09
-5.6256e-09
-4.59365e-09
-3.73864e-09
-3.03387e-09
-2.45597e-09
-1.98537e-09
-1.60516e-09
-1.29885e-09
-1.05314e-09
-8.47416e-10
-6.7671e-10
-4.67291e-10
1.53441e-10
1.53441e-10
0
-0.0434614
-0.0450424
-0.0342517
-0.0238913
-0.0167606
-0.0122647
-0.00937329
-0.00739327
-0.00595018
-0.00484988
-0.00398639
-0.00329625
-0.00273789
-0.00228214
-0.00190763
-0.00159821
-0.00134144
-0.00112763
-0.000949047
-0.000799545
-0.000674139
-0.000568778
-0.00048014
-0.000405494
-0.000342575
-0.000289505
-0.000244716
-0.000206896
-0.000174949
-0.000147955
-0.00012514
-0.000105852
-8.95439e-05
-7.5753e-05
-6.40892e-05
-5.42236e-05
-4.58783e-05
-3.88184e-05
-3.28457e-05
-2.77926e-05
-2.35172e-05
-1.98998e-05
-1.6839e-05
-1.42491e-05
-1.20577e-05
-1.02034e-05
-8.63423e-06
-7.30642e-06
-6.18286e-06
-5.2321e-06
-4.42754e-06
-3.74671e-06
-3.17058e-06
-2.68305e-06
-2.27048e-06
-1.92136e-06
-1.62592e-06
-1.37592e-06
-1.16435e-06
-9.85314e-07
-8.33813e-07
-7.05605e-07
-5.97112e-07
-5.05305e-07
-4.27615e-07
-3.61871e-07
-3.06238e-07
-2.59159e-07
-2.19314e-07
-1.8559e-07
-1.57042e-07
-1.32871e-07
-1.12397e-07
-9.50481e-08
-8.03405e-08
-6.78631e-08
-5.72727e-08
-4.82777e-08
-4.06333e-08
-3.41332e-08
-2.86058e-08
-2.39116e-08
-1.9923e-08
-1.65389e-08
-1.36756e-08
-1.12589e-08
-9.22772e-09
-7.52448e-09
-6.10679e-09
-4.93194e-09
-3.96477e-09
-3.17302e-09
-2.53071e-09
-2.01309e-09
-1.59764e-09
-1.26789e-09
-9.95326e-10
-7.81419e-10
-5.30898e-10
2.01032e-10
2.01032e-10
0
-0.0668415
-0.0608389
-0.042293
-0.0271275
-0.0175004
-0.0118522
-0.00849207
-0.00637029
-0.00493626
-0.00391077
-0.00314664
-0.00256042
-0.00210109
-0.0017354
-0.00144064
-0.00120071
-0.00100387
-0.00084138
-0.000706566
-0.000594272
-0.000500439
-0.000421833
-0.000355848
-0.000300369
-0.000253665
-0.000214308
-0.000181115
-0.000153102
-0.000129448
-0.000109466
-9.25814e-05
-7.83093e-05
-6.62431e-05
-5.60402e-05
-4.74113e-05
-4.0113e-05
-3.39394e-05
-2.87169e-05
-2.42986e-05
-2.05605e-05
-1.73977e-05
-1.47217e-05
-1.24575e-05
-1.05415e-05
-8.92032e-06
-7.54853e-06
-6.38768e-06
-5.40538e-06
-4.57419e-06
-3.8708e-06
-3.27558e-06
-2.7719e-06
-2.34567e-06
-1.98499e-06
-1.67976e-06
-1.42147e-06
-1.2029e-06
-1.01794e-06
-8.61416e-07
-7.28963e-07
-6.16877e-07
-5.22024e-07
-4.41758e-07
-3.73835e-07
-3.16356e-07
-2.67715e-07
-2.26556e-07
-1.91723e-07
-1.62242e-07
-1.3729e-07
-1.16166e-07
-9.82809e-08
-8.31298e-08
-7.029e-08
-5.94042e-08
-5.01687e-08
-4.23282e-08
-3.56676e-08
-3.00068e-08
-2.51916e-08
-2.1099e-08
-1.76227e-08
-1.46665e-08
-1.21609e-08
-1.0041e-08
-8.25327e-09
-6.75016e-09
-5.49113e-09
-4.44482e-09
-3.57752e-09
-2.86453e-09
-2.28194e-09
-1.81036e-09
-1.43063e-09
-1.12636e-09
-8.86242e-10
-6.87833e-10
-5.31682e-10
-3.75581e-10
1.48713e-10
1.48713e-10
0
-0.0787076
-0.0554406
-0.0327103
-0.0178114
-0.00965828
-0.00557768
-0.00354709
-0.0024703
-0.00183776
-0.0014258
-0.00113507
-0.000918494
-0.000751446
-0.000619607
-0.000513875
-0.000428074
-0.000357819
-0.000299889
-0.000251856
-0.00021186
-0.000178444
-0.000150448
-0.000126944
-0.000107176
-9.05299e-05
-7.64988e-05
-6.46619e-05
-5.46696e-05
-4.62303e-05
-3.90996e-05
-3.30723e-05
-2.79768e-05
-2.36682e-05
-2.00243e-05
-1.69423e-05
-1.43351e-05
-1.21295e-05
-1.02635e-05
-8.68478e-06
-7.34895e-06
-6.21867e-06
-5.26231e-06
-4.45303e-06
-3.76822e-06
-3.18878e-06
-2.69844e-06
-2.28346e-06
-1.93234e-06
-1.63522e-06
-1.38377e-06
-1.17099e-06
-9.9093e-07
-8.38563e-07
-7.09621e-07
-6.00502e-07
-5.08168e-07
-4.30029e-07
-3.63903e-07
-3.07946e-07
-2.60594e-07
-2.20522e-07
-1.86609e-07
-1.57914e-07
-1.3363e-07
-1.13079e-07
-9.56888e-08
-8.0974e-08
-6.85194e-08
-5.79788e-08
-4.9058e-08
-4.15069e-08
-3.51136e-08
-2.9697e-08
-2.51074e-08
-2.12175e-08
-1.79178e-08
-1.51161e-08
-1.27366e-08
-1.07144e-08
-8.99343e-09
-7.5336e-09
-6.29203e-09
-5.23447e-09
-4.3401e-09
-3.58258e-09
-2.94461e-09
-2.40645e-09
-1.95672e-09
-1.5828e-09
-1.27201e-09
-1.01686e-09
-8.08619e-10
-6.39804e-10
-5.0376e-10
-3.94627e-10
-3.08894e-10
-2.37481e-10
-1.78159e-10
-1.43441e-10
5.29289e-11
5.29289e-11
0
0
0
0
0
0
0
0
0
0
0
0
0
0
0
0
0
0
0
0
0
0
0
0
0
0
0
0
0
0
0
0
0
0
0
0
0
0
0
0
0
0
0
0
0
0
0
0
0
0
0
0
0
0
0
0
0
0
0
0
0
0
0
0
0
0
0
0
0
0
0
0
0
0
0
0
0
0
0
0
0
0
0
0
0
0
0
0
0
0
0
0
0
0
0
0
0
0
0
0
0
0
0
0
0
0
0
0
0
0
0
0
0
0
0
0
0
0
0
0
0
0
0
0
0
0
0
0
0
0
0
0
0
0
0
0
0
0
0
0
0
0
0
0
0
0
0
0
0
0
0
0
0
0
0
0
0
0
0
0
0
0
0
0
0
0
0
0
0
0
0
0
0
0
0
0
0
0
0
0
0
0
0
0
0
0
0
0
0
0
0
0
0
0
0
0
0
0
0
0
0
0
0
0
