# vtk DataFile Version 2.0
FlowField
ASCII
DATASET STRUCTURED_GRID
DIMENSIONS 102 13 1 
POINTS 1326 double
0 0 0
0.3 0 0
0.6 0 0
0.9 0 0
1.2 0 0
1.5 0 0
1.8 0 0
2.1 0 0
2.4 0 0
2.7 0 0
3 0 0
3.3 0 0
3.6 0 0
3.9 0 0
4.2 0 0
4.5 0 0
4.8 0 0
5.1 0 0
5.4 0 0
5.7 0 0
6 0 0
6.3 0 0
6.6 0 0
6.9 0 0
7.2 0 0
7.5 0 0
7.8 0 0
8.1 0 0
8.4 0 0
8.7 0 0
9 0 0
9.3 0 0
9.6 0 0
9.9 0 0
10.2 0 0
10.5 0 0
10.8 0 0
11.1 0 0
11.4 0 0
11.7 0 0
12 0 0
12.3 0 0
12.6 0 0
12.9 0 0
13.2 0 0
13.5 0 0
13.8 0 0
14.1 0 0
14.4 0 0
14.7 0 0
15 0 0
15.3 0 0
15.6 0 0
15.9 0 0
16.2 0 0
16.5 0 0
16.8 0 0
17.1 0 0
17.4 0 0
17.7 0 0
18 0 0
18.3 0 0
18.6 0 0
18.9 0 0
19.2 0 0
19.5 0 0
19.8 0 0
20.1 0 0
20.4 0 0
20.7 0 0
21 0 0
21.3 0 0
21.6 0 0
21.9 0 0
22.2 0 0
22.5 0 0
22.8 0 0
23.1 0 0
23.4 0 0
23.7 0 0
24 0 0
24.3 0 0
24.6 0 0
24.9 0 0
25.2 0 0
25.5 0 0
25.8 0 0
26.1 0 0
26.4 0 0
26.7 0 0
27 0 0
27.3 0 0
27.6 0 0
27.9 0 0
28.2 0 0
28.5 0 0
28.8 0 0
29.1 0 0
29.4 0 0
29.7 0 0
30 0 0
30.3 0 0
0 0.1 0
0.3 0.1 0
0.6 0.1 0
0.9 0.1 0
1.2 0.1 0
1.5 0.1 0
1.8 0.1 0
2.1 0.1 0
2.4 0.1 0
2.7 0.1 0
3 0.1 0
3.3 0.1 0
3.6 0.1 0
3.9 0.1 0
4.2 0.1 0
4.5 0.1 0
4.8 0.1 0
5.1 0.1 0
5.4 0.1 0
5.7 0.1 0
6 0.1 0
6.3 0.1 0
6.6 0.1 0
6.9 0.1 0
7.2 0.1 0
7.5 0.1 0
7.8 0.1 0
8.1 0.1 0
8.4 0.1 0
8.7 0.1 0
9 0.1 0
9.3 0.1 0
9.6 0.1 0
9.9 0.1 0
10.2 0.1 0
10.5 0.1 0
10.8 0.1 0
11.1 0.1 0
11.4 0.1 0
11.7 0.1 0
12 0.1 0
12.3 0.1 0
12.6 0.1 0
12.9 0.1 0
13.2 0.1 0
13.5 0.1 0
13.8 0.1 0
14.1 0.1 0
14.4 0.1 0
14.7 0.1 0
15 0.1 0
15.3 0.1 0
15.6 0.1 0
15.9 0.1 0
16.2 0.1 0
16.5 0.1 0
16.8 0.1 0
17.1 0.1 0
17.4 0.1 0
17.7 0.1 0
18 0.1 0
18.3 0.1 0
18.6 0.1 0
18.9 0.1 0
19.2 0.1 0
19.5 0.1 0
19.8 0.1 0
20.1 0.1 0
20.4 0.1 0
20.7 0.1 0
21 0.1 0
21.3 0.1 0
21.6 0.1 0
21.9 0.1 0
22.2 0.1 0
22.5 0.1 0
22.8 0.1 0
23.1 0.1 0
23.4 0.1 0
23.7 0.1 0
24 0.1 0
24.3 0.1 0
24.6 0.1 0
24.9 0.1 0
25.2 0.1 0
25.5 0.1 0
25.8 0.1 0
26.1 0.1 0
26.4 0.1 0
26.7 0.1 0
27 0.1 0
27.3 0.1 0
27.6 0.1 0
27.9 0.1 0
28.2 0.1 0
28.5 0.1 0
28.8 0.1 0
29.1 0.1 0
29.4 0.1 0
29.7 0.1 0
30 0.1 0
30.3 0.1 0
0 0.2 0
0.3 0.2 0
0.6 0.2 0
0.9 0.2 0
1.2 0.2 0
1.5 0.2 0
1.8 0.2 0
2.1 0.2 0
2.4 0.2 0
2.7 0.2 0
3 0.2 0
3.3 0.2 0
3.6 0.2 0
3.9 0.2 0
4.2 0.2 0
4.5 0.2 0
4.8 0.2 0
5.1 0.2 0
5.4 0.2 0
5.7 0.2 0
6 0.2 0
6.3 0.2 0
6.6 0.2 0
6.9 0.2 0
7.2 0.2 0
7.5 0.2 0
7.8 0.2 0
8.1 0.2 0
8.4 0.2 0
8.7 0.2 0
9 0.2 0
9.3 0.2 0
9.6 0.2 0
9.9 0.2 0
10.2 0.2 0
10.5 0.2 0
10.8 0.2 0
11.1 0.2 0
11.4 0.2 0
11.7 0.2 0
12 0.2 0
12.3 0.2 0
12.6 0.2 0
12.9 0.2 0
13.2 0.2 0
13.5 0.2 0
13.8 0.2 0
14.1 0.2 0
14.4 0.2 0
14.7 0.2 0
15 0.2 0
15.3 0.2 0
15.6 0.2 0
15.9 0.2 0
16.2 0.2 0
16.5 0.2 0
16.8 0.2 0
17.1 0.2 0
17.4 0.2 0
17.7 0.2 0
18 0.2 0
18.3 0.2 0
18.6 0.2 0
18.9 0.2 0
19.2 0.2 0
19.5 0.2 0
19.8 0.2 0
20.1 0.2 0
20.4 0.2 0
20.7 0.2 0
21 0.2 0
21.3 0.2 0
21.6 0.2 0
21.9 0.2 0
22.2 0.2 0
22.5 0.2 0
22.8 0.2 0
23.1 0.2 0
23.4 0.2 0
23.7 0.2 0
24 0.2 0
24.3 0.2 0
24.6 0.2 0
24.9 0.2 0
25.2 0.2 0
25.5 0.2 0
25.8 0.2 0
26.1 0.2 0
26.4 0.2 0
26.7 0.2 0
27 0.2 0
27.3 0.2 0
27.6 0.2 0
27.9 0.2 0
28.2 0.2 0
28.5 0.2 0
28.8 0.2 0
29.1 0.2 0
29.4 0.2 0
29.7 0.2 0
30 0.2 0
30.3 0.2 0
0 0.3 0
0.3 0.3 0
0.6 0.3 0
0.9 0.3 0
1.2 0.3 0
1.5 0.3 0
1.8 0.3 0
2.1 0.3 0
2.4 0.3 0
2.7 0.3 0
3 0.3 0
3.3 0.3 0
3.6 0.3 0
3.9 0.3 0
4.2 0.3 0
4.5 0.3 0
4.8 0.3 0
5.1 0.3 0
5.4 0.3 0
5.7 0.3 0
6 0.3 0
6.3 0.3 0
6.6 0.3 0
6.9 0.3 0
7.2 0.3 0
7.5 0.3 0
7.8 0.3 0
8.1 0.3 0
8.4 0.3 0
8.7 0.3 0
9 0.3 0
9.3 0.3 0
9.6 0.3 0
9.9 0.3 0
10.2 0.3 0
10.5 0.3 0
10.8 0.3 0
11.1 0.3 0
11.4 0.3 0
11.7 0.3 0
12 0.3 0
12.3 0.3 0
12.6 0.3 0
12.9 0.3 0
13.2 0.3 0
13.5 0.3 0
13.8 0.3 0
14.1 0.3 0
14.4 0.3 0
14.7 0.3 0
15 0.3 0
15.3 0.3 0
15.6 0.3 0
15.9 0.3 0
16.2 0.3 0
16.5 0.3 0
16.8 0.3 0
17.1 0.3 0
17.4 0.3 0
17.7 0.3 0
18 0.3 0
18.3 0.3 0
18.6 0.3 0
18.9 0.3 0
19.2 0.3 0
19.5 0.3 0
19.8 0.3 0
20.1 0.3 0
20.4 0.3 0
20.7 0.3 0
21 0.3 0
21.3 0.3 0
21.6 0.3 0
21.9 0.3 0
22.2 0.3 0
22.5 0.3 0
22.8 0.3 0
23.1 0.3 0
23.4 0.3 0
23.7 0.3 0
24 0.3 0
24.3 0.3 0
24.6 0.3 0
24.9 0.3 0
25.2 0.3 0
25.5 0.3 0
25.8 0.3 0
26.1 0.3 0
26.4 0.3 0
26.7 0.3 0
27 0.3 0
27.3 0.3 0
27.6 0.3 0
27.9 0.3 0
28.2 0.3 0
28.5 0.3 0
28.8 0.3 0
29.1 0.3 0
29.4 0.3 0
29.7 0.3 0
30 0.3 0
30.3 0.3 0
0 0.4 0
0.3 0.4 0
0.6 0.4 0
0.9 0.4 0
1.2 0.4 0
1.5 0.4 0
1.8 0.4 0
2.1 0.4 0
2.4 0.4 0
2.7 0.4 0
3 0.4 0
3.3 0.4 0
3.6 0.4 0
3.9 0.4 0
4.2 0.4 0
4.5 0.4 0
4.8 0.4 0
5.1 0.4 0
5.4 0.4 0
5.7 0.4 0
6 0.4 0
6.3 0.4 0
6.6 0.4 0
6.9 0.4 0
7.2 0.4 0
7.5 0.4 0
7.8 0.4 0
8.1 0.4 0
8.4 0.4 0
8.7 0.4 0
9 0.4 0
9.3 0.4 0
9.6 0.4 0
9.9 0.4 0
10.2 0.4 0
10.5 0.4 0
10.8 0.4 0
11.1 0.4 0
11.4 0.4 0
11.7 0.4 0
12 0.4 0
12.3 0.4 0
12.6 0.4 0
12.9 0.4 0
13.2 0.4 0
13.5 0.4 0
13.8 0.4 0
14.1 0.4 0
14.4 0.4 0
14.7 0.4 0
15 0.4 0
15.3 0.4 0
15.6 0.4 0
15.9 0.4 0
16.2 0.4 0
16.5 0.4 0
16.8 0.4 0
17.1 0.4 0
17.4 0.4 0
17.7 0.4 0
18 0.4 0
18.3 0.4 0
18.6 0.4 0
18.9 0.4 0
19.2 0.4 0
19.5 0.4 0
19.8 0.4 0
20.1 0.4 0
20.4 0.4 0
20.7 0.4 0
21 0.4 0
21.3 0.4 0
21.6 0.4 0
21.9 0.4 0
22.2 0.4 0
22.5 0.4 0
22.8 0.4 0
23.1 0.4 0
23.4 0.4 0
23.7 0.4 0
24 0.4 0
24.3 0.4 0
24.6 0.4 0
24.9 0.4 0
25.2 0.4 0
25.5 0.4 0
25.8 0.4 0
26.1 0.4 0
26.4 0.4 0
26.7 0.4 0
27 0.4 0
27.3 0.4 0
27.6 0.4 0
27.9 0.4 0
28.2 0.4 0
28.5 0.4 0
28.8 0.4 0
29.1 0.4 0
29.4 0.4 0
29.7 0.4 0
30 0.4 0
30.3 0.4 0
0 0.5 0
0.3 0.5 0
0.6 0.5 0
0.9 0.5 0
1.2 0.5 0
1.5 0.5 0
1.8 0.5 0
2.1 0.5 0
2.4 0.5 0
2.7 0.5 0
3 0.5 0
3.3 0.5 0
3.6 0.5 0
3.9 0.5 0
4.2 0.5 0
4.5 0.5 0
4.8 0.5 0
5.1 0.5 0
5.4 0.5 0
5.7 0.5 0
6 0.5 0
6.3 0.5 0
6.6 0.5 0
6.9 0.5 0
7.2 0.5 0
7.5 0.5 0
7.8 0.5 0
8.1 0.5 0
8.4 0.5 0
8.7 0.5 0
9 0.5 0
9.3 0.5 0
9.6 0.5 0
9.9 0.5 0
10.2 0.5 0
10.5 0.5 0
10.8 0.5 0
11.1 0.5 0
11.4 0.5 0
11.7 0.5 0
12 0.5 0
12.3 0.5 0
12.6 0.5 0
12.9 0.5 0
13.2 0.5 0
13.5 0.5 0
13.8 0.5 0
14.1 0.5 0
14.4 0.5 0
14.7 0.5 0
15 0.5 0
15.3 0.5 0
15.6 0.5 0
15.9 0.5 0
16.2 0.5 0
16.5 0.5 0
16.8 0.5 0
17.1 0.5 0
17.4 0.5 0
17.7 0.5 0
18 0.5 0
18.3 0.5 0
18.6 0.5 0
18.9 0.5 0
19.2 0.5 0
19.5 0.5 0
19.8 0.5 0
20.1 0.5 0
20.4 0.5 0
20.7 0.5 0
21 0.5 0
21.3 0.5 0
21.6 0.5 0
21.9 0.5 0
22.2 0.5 0
22.5 0.5 0
22.8 0.5 0
23.1 0.5 0
23.4 0.5 0
23.7 0.5 0
24 0.5 0
24.3 0.5 0
24.6 0.5 0
24.9 0.5 0
25.2 0.5 0
25.5 0.5 0
25.8 0.5 0
26.1 0.5 0
26.4 0.5 0
26.7 0.5 0
27 0.5 0
27.3 0.5 0
27.6 0.5 0
27.9 0.5 0
28.2 0.5 0
28.5 0.5 0
28.8 0.5 0
29.1 0.5 0
29.4 0.5 0
29.7 0.5 0
30 0.5 0
30.3 0.5 0
0 0.6 0
0.3 0.6 0
0.6 0.6 0
0.9 0.6 0
1.2 0.6 0
1.5 0.6 0
1.8 0.6 0
2.1 0.6 0
2.4 0.6 0
2.7 0.6 0
3 0.6 0
3.3 0.6 0
3.6 0.6 0
3.9 0.6 0
4.2 0.6 0
4.5 0.6 0
4.8 0.6 0
5.1 0.6 0
5.4 0.6 0
5.7 0.6 0
6 0.6 0
6.3 0.6 0
6.6 0.6 0
6.9 0.6 0
7.2 0.6 0
7.5 0.6 0
7.8 0.6 0
8.1 0.6 0
8.4 0.6 0
8.7 0.6 0
9 0.6 0
9.3 0.6 0
9.6 0.6 0
9.9 0.6 0
10.2 0.6 0
10.5 0.6 0
10.8 0.6 0
11.1 0.6 0
11.4 0.6 0
11.7 0.6 0
12 0.6 0
12.3 0.6 0
12.6 0.6 0
12.9 0.6 0
13.2 0.6 0
13.5 0.6 0
13.8 0.6 0
14.1 0.6 0
14.4 0.6 0
14.7 0.6 0
15 0.6 0
15.3 0.6 0
15.6 0.6 0
15.9 0.6 0
16.2 0.6 0
16.5 0.6 0
16.8 0.6 0
17.1 0.6 0
17.4 0.6 0
17.7 0.6 0
18 0.6 0
18.3 0.6 0
18.6 0.6 0
18.9 0.6 0
19.2 0.6 0
19.5 0.6 0
19.8 0.6 0
20.1 0.6 0
20.4 0.6 0
20.7 0.6 0
21 0.6 0
21.3 0.6 0
21.6 0.6 0
21.9 0.6 0
22.2 0.6 0
22.5 0.6 0
22.8 0.6 0
23.1 0.6 0
23.4 0.6 0
23.7 0.6 0
24 0.6 0
24.3 0.6 0
24.6 0.6 0
24.9 0.6 0
25.2 0.6 0
25.5 0.6 0
25.8 0.6 0
26.1 0.6 0
26.4 0.6 0
26.7 0.6 0
27 0.6 0
27.3 0.6 0
27.6 0.6 0
27.9 0.6 0
28.2 0.6 0
28.5 0.6 0
28.8 0.6 0
29.1 0.6 0
29.4 0.6 0
29.7 0.6 0
30 0.6 0
30.3 0.6 0
0 0.7 0
0.3 0.7 0
0.6 0.7 0
0.9 0.7 0
1.2 0.7 0
1.5 0.7 0
1.8 0.7 0
2.1 0.7 0
2.4 0.7 0
2.7 0.7 0
3 0.7 0
3.3 0.7 0
3.6 0.7 0
3.9 0.7 0
4.2 0.7 0
4.5 0.7 0
4.8 0.7 0
5.1 0.7 0
5.4 0.7 0
5.7 0.7 0
6 0.7 0
6.3 0.7 0
6.6 0.7 0
6.9 0.7 0
7.2 0.7 0
7.5 0.7 0
7.8 0.7 0
8.1 0.7 0
8.4 0.7 0
8.7 0.7 0
9 0.7 0
9.3 0.7 0
9.6 0.7 0
9.9 0.7 0
10.2 0.7 0
10.5 0.7 0
10.8 0.7 0
11.1 0.7 0
11.4 0.7 0
11.7 0.7 0
12 0.7 0
12.3 0.7 0
12.6 0.7 0
12.9 0.7 0
13.2 0.7 0
13.5 0.7 0
13.8 0.7 0
14.1 0.7 0
14.4 0.7 0
14.7 0.7 0
15 0.7 0
15.3 0.7 0
15.6 0.7 0
15.9 0.7 0
16.2 0.7 0
16.5 0.7 0
16.8 0.7 0
17.1 0.7 0
17.4 0.7 0
17.7 0.7 0
18 0.7 0
18.3 0.7 0
18.6 0.7 0
18.9 0.7 0
19.2 0.7 0
19.5 0.7 0
19.8 0.7 0
20.1 0.7 0
20.4 0.7 0
20.7 0.7 0
21 0.7 0
21.3 0.7 0
21.6 0.7 0
21.9 0.7 0
22.2 0.7 0
22.5 0.7 0
22.8 0.7 0
23.1 0.7 0
23.4 0.7 0
23.7 0.7 0
24 0.7 0
24.3 0.7 0
24.6 0.7 0
24.9 0.7 0
25.2 0.7 0
25.5 0.7 0
25.8 0.7 0
26.1 0.7 0
26.4 0.7 0
26.7 0.7 0
27 0.7 0
27.3 0.7 0
27.6 0.7 0
27.9 0.7 0
28.2 0.7 0
28.5 0.7 0
28.8 0.7 0
29.1 0.7 0
29.4 0.7 0
29.7 0.7 0
30 0.7 0
30.3 0.7 0
0 0.8 0
0.3 0.8 0
0.6 0.8 0
0.9 0.8 0
1.2 0.8 0
1.5 0.8 0
1.8 0.8 0
2.1 0.8 0
2.4 0.8 0
2.7 0.8 0
3 0.8 0
3.3 0.8 0
3.6 0.8 0
3.9 0.8 0
4.2 0.8 0
4.5 0.8 0
4.8 0.8 0
5.1 0.8 0
5.4 0.8 0
5.7 0.8 0
6 0.8 0
6.3 0.8 0
6.6 0.8 0
6.9 0.8 0
7.2 0.8 0
7.5 0.8 0
7.8 0.8 0
8.1 0.8 0
8.4 0.8 0
8.7 0.8 0
9 0.8 0
9.3 0.8 0
9.6 0.8 0
9.9 0.8 0
10.2 0.8 0
10.5 0.8 0
10.8 0.8 0
11.1 0.8 0
11.4 0.8 0
11.7 0.8 0
12 0.8 0
12.3 0.8 0
12.6 0.8 0
12.9 0.8 0
13.2 0.8 0
13.5 0.8 0
13.8 0.8 0
14.1 0.8 0
14.4 0.8 0
14.7 0.8 0
15 0.8 0
15.3 0.8 0
15.6 0.8 0
15.9 0.8 0
16.2 0.8 0
16.5 0.8 0
16.8 0.8 0
17.1 0.8 0
17.4 0.8 0
17.7 0.8 0
18 0.8 0
18.3 0.8 0
18.6 0.8 0
18.9 0.8 0
19.2 0.8 0
19.5 0.8 0
19.8 0.8 0
20.1 0.8 0
20.4 0.8 0
20.7 0.8 0
21 0.8 0
21.3 0.8 0
21.6 0.8 0
21.9 0.8 0
22.2 0.8 0
22.5 0.8 0
22.8 0.8 0
23.1 0.8 0
23.4 0.8 0
23.7 0.8 0
24 0.8 0
24.3 0.8 0
24.6 0.8 0
24.9 0.8 0
25.2 0.8 0
25.5 0.8 0
25.8 0.8 0
26.1 0.8 0
26.4 0.8 0
26.7 0.8 0
27 0.8 0
27.3 0.8 0
27.6 0.8 0
27.9 0.8 0
28.2 0.8 0
28.5 0.8 0
28.8 0.8 0
29.1 0.8 0
29.4 0.8 0
29.7 0.8 0
30 0.8 0
30.3 0.8 0
0 0.9 0
0.3 0.9 0
0.6 0.9 0
0.9 0.9 0
1.2 0.9 0
1.5 0.9 0
1.8 0.9 0
2.1 0.9 0
2.4 0.9 0
2.7 0.9 0
3 0.9 0
3.3 0.9 0
3.6 0.9 0
3.9 0.9 0
4.2 0.9 0
4.5 0.9 0
4.8 0.9 0
5.1 0.9 0
5.4 0.9 0
5.7 0.9 0
6 0.9 0
6.3 0.9 0
6.6 0.9 0
6.9 0.9 0
7.2 0.9 0
7.5 0.9 0
7.8 0.9 0
8.1 0.9 0
8.4 0.9 0
8.7 0.9 0
9 0.9 0
9.3 0.9 0
9.6 0.9 0
9.9 0.9 0
10.2 0.9 0
10.5 0.9 0
10.8 0.9 0
11.1 0.9 0
11.4 0.9 0
11.7 0.9 0
12 0.9 0
12.3 0.9 0
12.6 0.9 0
12.9 0.9 0
13.2 0.9 0
13.5 0.9 0
13.8 0.9 0
14.1 0.9 0
14.4 0.9 0
14.7 0.9 0
15 0.9 0
15.3 0.9 0
15.6 0.9 0
15.9 0.9 0
16.2 0.9 0
16.5 0.9 0
16.8 0.9 0
17.1 0.9 0
17.4 0.9 0
17.7 0.9 0
18 0.9 0
18.3 0.9 0
18.6 0.9 0
18.9 0.9 0
19.2 0.9 0
19.5 0.9 0
19.8 0.9 0
20.1 0.9 0
20.4 0.9 0
20.7 0.9 0
21 0.9 0
21.3 0.9 0
21.6 0.9 0
21.9 0.9 0
22.2 0.9 0
22.5 0.9 0
22.8 0.9 0
23.1 0.9 0
23.4 0.9 0
23.7 0.9 0
24 0.9 0
24.3 0.9 0
24.6 0.9 0
24.9 0.9 0
25.2 0.9 0
25.5 0.9 0
25.8 0.9 0
26.1 0.9 0
26.4 0.9 0
26.7 0.9 0
27 0.9 0
27.3 0.9 0
27.6 0.9 0
27.9 0.9 0
28.2 0.9 0
28.5 0.9 0
28.8 0.9 0
29.1 0.9 0
29.4 0.9 0
29.7 0.9 0
30 0.9 0
30.3 0.9 0
0 1 0
0.3 1 0
0.6 1 0
0.9 1 0
1.2 1 0
1.5 1 0
1.8 1 0
2.1 1 0
2.4 1 0
2.7 1 0
3 1 0
3.3 1 0
3.6 1 0
3.9 1 0
4.2 1 0
4.5 1 0
4.8 1 0
5.1 1 0
5.4 1 0
5.7 1 0
6 1 0
6.3 1 0
6.6 1 0
6.9 1 0
7.2 1 0
7.5 1 0
7.8 1 0
8.1 1 0
8.4 1 0
8.7 1 0
9 1 0
9.3 1 0
9.6 1 0
9.9 1 0
10.2 1 0
10.5 1 0
10.8 1 0
11.1 1 0
11.4 1 0
11.7 1 0
12 1 0
12.3 1 0
12.6 1 0
12.9 1 0
13.2 1 0
13.5 1 0
13.8 1 0
14.1 1 0
14.4 1 0
14.7 1 0
15 1 0
15.3 1 0
15.6 1 0
15.9 1 0
16.2 1 0
16.5 1 0
16.8 1 0
17.1 1 0
17.4 1 0
17.7 1 0
18 1 0
18.3 1 0
18.6 1 0
18.9 1 0
19.2 1 0
19.5 1 0
19.8 1 0
20.1 1 0
20.4 1 0
20.7 1 0
21 1 0
21.3 1 0
21.6 1 0
21.9 1 0
22.2 1 0
22.5 1 0
22.8 1 0
23.1 1 0
23.4 1 0
23.7 1 0
24 1 0
24.3 1 0
24.6 1 0
24.9 1 0
25.2 1 0
25.5 1 0
25.8 1 0
26.1 1 0
26.4 1 0
26.7 1 0
27 1 0
27.3 1 0
27.6 1 0
27.9 1 0
28.2 1 0
28.5 1 0
28.8 1 0
29.1 1 0
29.4 1 0
29.7 1 0
30 1 0
30.3 1 0
0 1.1 0
0.3 1.1 0
0.6 1.1 0
0.9 1.1 0
1.2 1.1 0
1.5 1.1 0
1.8 1.1 0
2.1 1.1 0
2.4 1.1 0
2.7 1.1 0
3 1.1 0
3.3 1.1 0
3.6 1.1 0
3.9 1.1 0
4.2 1.1 0
4.5 1.1 0
4.8 1.1 0
5.1 1.1 0
5.4 1.1 0
5.7 1.1 0
6 1.1 0
6.3 1.1 0
6.6 1.1 0
6.9 1.1 0
7.2 1.1 0
7.5 1.1 0
7.8 1.1 0
8.1 1.1 0
8.4 1.1 0
8.7 1.1 0
9 1.1 0
9.3 1.1 0
9.6 1.1 0
9.9 1.1 0
10.2 1.1 0
10.5 1.1 0
10.8 1.1 0
11.1 1.1 0
11.4 1.1 0
11.7 1.1 0
12 1.1 0
12.3 1.1 0
12.6 1.1 0
12.9 1.1 0
13.2 1.1 0
13.5 1.1 0
13.8 1.1 0
14.1 1.1 0
14.4 1.1 0
14.7 1.1 0
15 1.1 0
15.3 1.1 0
15.6 1.1 0
15.9 1.1 0
16.2 1.1 0
16.5 1.1 0
16.8 1.1 0
17.1 1.1 0
17.4 1.1 0
17.7 1.1 0
18 1.1 0
18.3 1.1 0
18.6 1.1 0
18.9 1.1 0
19.2 1.1 0
19.5 1.1 0
19.8 1.1 0
20.1 1.1 0
20.4 1.1 0
20.7 1.1 0
21 1.1 0
21.3 1.1 0
21.6 1.1 0
21.9 1.1 0
22.2 1.1 0
22.5 1.1 0
22.8 1.1 0
23.1 1.1 0
23.4 1.1 0
23.7 1.1 0
24 1.1 0
24.3 1.1 0
24.6 1.1 0
24.9 1.1 0
25.2 1.1 0
25.5 1.1 0
25.8 1.1 0
26.1 1.1 0
26.4 1.1 0
26.7 1.1 0
27 1.1 0
27.3 1.1 0
27.6 1.1 0
27.9 1.1 0
28.2 1.1 0
28.5 1.1 0
28.8 1.1 0
29.1 1.1 0
29.4 1.1 0
29.7 1.1 0
30 1.1 0
30.3 1.1 0
0 1.2 0
0.3 1.2 0
0.6 1.2 0
0.9 1.2 0
1.2 1.2 0
1.5 1.2 0
1.8 1.2 0
2.1 1.2 0
2.4 1.2 0
2.7 1.2 0
3 1.2 0
3.3 1.2 0
3.6 1.2 0
3.9 1.2 0
4.2 1.2 0
4.5 1.2 0
4.8 1.2 0
5.1 1.2 0
5.4 1.2 0
5.7 1.2 0
6 1.2 0
6.3 1.2 0
6.6 1.2 0
6.9 1.2 0
7.2 1.2 0
7.5 1.2 0
7.8 1.2 0
8.1 1.2 0
8.4 1.2 0
8.7 1.2 0
9 1.2 0
9.3 1.2 0
9.6 1.2 0
9.9 1.2 0
10.2 1.2 0
10.5 1.2 0
10.8 1.2 0
11.1 1.2 0
11.4 1.2 0
11.7 1.2 0
12 1.2 0
12.3 1.2 0
12.6 1.2 0
12.9 1.2 0
13.2 1.2 0
13.5 1.2 0
13.8 1.2 0
14.1 1.2 0
14.4 1.2 0
14.7 1.2 0
15 1.2 0
15.3 1.2 0
15.6 1.2 0
15.9 1.2 0
16.2 1.2 0
16.5 1.2 0
16.8 1.2 0
17.1 1.2 0
17.4 1.2 0
17.7 1.2 0
18 1.2 0
18.3 1.2 0
18.6 1.2 0
18.9 1.2 0
19.2 1.2 0
19.5 1.2 0
19.8 1.2 0
20.1 1.2 0
20.4 1.2 0
20.7 1.2 0
21 1.2 0
21.3 1.2 0
21.6 1.2 0
21.9 1.2 0
22.2 1.2 0
22.5 1.2 0
22.8 1.2 0
23.1 1.2 0
23.4 1.2 0
23.7 1.2 0
24 1.2 0
24.3 1.2 0
24.6 1.2 0
24.9 1.2 0
25.2 1.2 0
25.5 1.2 0
25.8 1.2 0
26.1 1.2 0
26.4 1.2 0
26.7 1.2 0
27 1.2 0
27.3 1.2 0
27.6 1.2 0
27.9 1.2 0
28.2 1.2 0
28.5 1.2 0
28.8 1.2 0
29.1 1.2 0
29.4 1.2 0
29.7 1.2 0
30 1.2 0
30.3 1.2 0

POINT_DATA 1326

SCALARS p double
LOOKUP_TABLE default
1.16103
1.16103
1.09619
1.05195
1.01213
0.975555
0.942503
0.912975
0.886619
0.86291
0.841308
0.821344
0.802651
0.784952
0.768045
0.751786
0.736067
0.720811
0.705959
0.691464
0.67729
0.663405
0.649784
0.636405
0.62325
0.610299
0.59754
0.584957
0.57254
0.560275
0.548155
0.536168
0.524307
0.512564
0.500931
0.489401
0.477969
0.466629
0.455375
0.444202
0.433106
0.422083
0.411129
0.400242
0.389419
0.378658
0.367958
0.357317
0.346734
0.336208
0.325737
0.31532
0.304954
0.294637
0.284367
0.27414
0.263953
0.253802
0.243683
0.233592
0.223526
0.213482
0.203456
0.193444
0.183445
0.173457
0.163476
0.153501
0.143532
0.133566
0.123604
0.113643
0.103684
0.0937263
0.0837695
0.0738132
0.0638574
0.0539018
0.0439465
0.0339914
0.0240363
0.0140813
0.00412635
-0.00582857
-0.0157835
-0.0257383
-0.0356932
-0.0456481
-0.0556029
-0.0655578
-0.0755127
-0.0854675
-0.0954224
-0.105377
-0.115332
-0.125287
-0.135242
-0.145196
-0.155151
-0.165107
-0.175057
0.175057
1.16103
1.16103
1.09619
1.05195
1.01213
0.975555
0.942503
0.912975
0.886619
0.86291
0.841308
0.821344
0.802651
0.784952
0.768045
0.751786
0.736067
0.720811
0.705959
0.691464
0.67729
0.663405
0.649784
0.636405
0.62325
0.610299
0.59754
0.584957
0.57254
0.560275
0.548155
0.536168
0.524307
0.512564
0.500931
0.489401
0.477969
0.466629
0.455375
0.444202
0.433106
0.422083
0.411129
0.400242
0.389419
0.378658
0.367958
0.357317
0.346734
0.336208
0.325737
0.31532
0.304954
0.294637
0.284367
0.27414
0.263953
0.253802
0.243683
0.233592
0.223526
0.213482
0.203456
0.193444
0.183445
0.173457
0.163476
0.153501
0.143532
0.133566
0.123604
0.113643
0.103684
0.0937263
0.0837695
0.0738132
0.0638574
0.0539018
0.0439465
0.0339914
0.0240363
0.0140813
0.00412635
-0.00582857
-0.0157835
-0.0257383
-0.0356932
-0.0456481
-0.0556029
-0.0655578
-0.0755127
-0.0854675
-0.0954224
-0.105377
-0.115332
-0.125287
-0.135242
-0.145196
-0.155151
-0.165107
-0.175057
0.175057
1.14009
1.14009
1.0942
1.05218
1.01283
0.976351
0.943246
0.913606
0.887126
0.863305
0.841611
0.821578
0.802833
0.785097
0.768163
0.751883
0.73615
0.720883
0.706021
0.691519
0.677339
0.663449
0.649824
0.636442
0.623283
0.61033
0.597568
0.584983
0.572564
0.560298
0.548175
0.536187
0.524325
0.51258
0.500946
0.489416
0.477983
0.466642
0.455387
0.444213
0.433116
0.422092
0.411138
0.40025
0.389426
0.378665
0.367964
0.357322
0.346739
0.336212
0.32574
0.315323
0.304956
0.294639
0.284369
0.274141
0.263954
0.253802
0.243683
0.233592
0.223526
0.213482
0.203456
0.193444
0.183445
0.173456
0.163476
0.153501
0.143532
0.133566
0.123603
0.113643
0.103684
0.0937263
0.0837694
0.0738132
0.0638574
0.0539018
0.0439465
0.0339914
0.0240363
0.0140813
0.00412635
-0.00582857
-0.0157835
-0.0257383
-0.0356932
-0.0456481
-0.055603
-0.0655578
-0.0755127
-0.0854675
-0.0954224
-0.105377
-0.115332
-0.125287
-0.135242
-0.145196
-0.155151
-0.165107
-0.175056
0.175056
1.12511
1.12511
1.09132
1.05241
1.01395
0.977675
0.944507
0.914684
0.887988
0.863964
0.842104
0.821943
0.803105
0.785302
0.768321
0.752008
0.736251
0.720967
0.706092
0.69158
0.677392
0.663496
0.649866
0.636479
0.623316
0.61036
0.597595
0.585008
0.572586
0.560318
0.548194
0.536205
0.524341
0.512595
0.50096
0.489428
0.477995
0.466653
0.455397
0.444222
0.433125
0.422101
0.411146
0.400257
0.389433
0.378671
0.367969
0.357327
0.346743
0.336216
0.325744
0.315325
0.304958
0.294641
0.28437
0.274142
0.263954
0.253803
0.243683
0.233592
0.223526
0.213482
0.203455
0.193444
0.183445
0.173456
0.163476
0.153501
0.143532
0.133566
0.123603
0.113643
0.103684
0.0937263
0.0837694
0.0738132
0.0638573
0.0539018
0.0439465
0.0339914
0.0240363
0.0140813
0.00412635
-0.00582857
-0.0157835
-0.0257384
-0.0356932
-0.0456481
-0.055603
-0.0655578
-0.0755127
-0.0854675
-0.0954224
-0.105377
-0.115332
-0.125287
-0.135242
-0.145196
-0.155151
-0.165105
-0.175055
0.175055
1.11554
1.11554
1.08883
1.05252
1.0149
0.97887
0.945684
0.915721
0.888841
0.864636
0.842621
0.822338
0.803407
0.785536
0.768506
0.752158
0.736374
0.72107
0.70618
0.691656
0.677458
0.663554
0.649918
0.636525
0.623358
0.610397
0.597629
0.585039
0.572614
0.560344
0.548217
0.536226
0.52436
0.512613
0.500976
0.489444
0.478009
0.466666
0.455409
0.444234
0.433135
0.42211
0.411155
0.400266
0.389441
0.378678
0.367977
0.357334
0.346749
0.336221
0.325749
0.31533
0.304963
0.294645
0.284374
0.274145
0.263957
0.253805
0.243685
0.233594
0.223528
0.213483
0.203456
0.193445
0.183446
0.173457
0.163476
0.153501
0.143532
0.133566
0.123604
0.113643
0.103684
0.0937263
0.0837694
0.0738132
0.0638573
0.0539018
0.0439465
0.0339914
0.0240363
0.0140813
0.00412635
-0.00582857
-0.0157835
-0.0257383
-0.0356932
-0.0456481
-0.055603
-0.0655578
-0.0755127
-0.0854675
-0.0954224
-0.105377
-0.115332
-0.125287
-0.135242
-0.145196
-0.15515
-0.165102
-0.175053
0.175053
1.11022
1.11022
1.0872
1.05254
1.01549
0.979637
0.946453
0.91641
0.889418
0.865101
0.842985
0.822622
0.80363
0.785713
0.768649
0.752275
0.736473
0.721154
0.706254
0.691721
0.677515
0.663605
0.649963
0.636566
0.623395
0.610431
0.59766
0.585067
0.572639
0.560367
0.548239
0.536246
0.524378
0.51263
0.500992
0.489458
0.478022
0.466678
0.45542
0.444244
0.433146
0.42212
0.411164
0.400274
0.389449
0.378686
0.367984
0.357341
0.346756
0.336228
0.325755
0.315336
0.304968
0.29465
0.284378
0.274149
0.263961
0.253808
0.243688
0.233596
0.22353
0.213485
0.203458
0.193446
0.183447
0.173457
0.163476
0.153502
0.143532
0.133566
0.123604
0.113643
0.103684
0.0937264
0.0837695
0.0738132
0.0638574
0.0539018
0.0439465
0.0339914
0.0240363
0.0140813
0.00412635
-0.00582857
-0.0157835
-0.0257383
-0.0356932
-0.0456481
-0.0556029
-0.0655578
-0.0755127
-0.0854675
-0.0954224
-0.105377
-0.115332
-0.125287
-0.135242
-0.145196
-0.15515
-0.165098
-0.175051
0.175051
1.10852
1.10852
1.08666
1.05255
1.0157
0.979911
0.946726
0.916656
0.889625
0.865268
0.843118
0.822726
0.803713
0.78578
0.768704
0.752321
0.736512
0.721188
0.706283
0.691747
0.677538
0.663626
0.649982
0.636583
0.62341
0.610445
0.597672
0.585078
0.57265
0.560377
0.548248
0.536254
0.524386
0.512637
0.500999
0.489464
0.478028
0.466683
0.455425
0.444249
0.43315
0.422124
0.411168
0.400278
0.389453
0.37869
0.367987
0.357344
0.346759
0.336231
0.325758
0.315339
0.304971
0.294652
0.28438
0.274151
0.263962
0.25381
0.243689
0.233598
0.223531
0.213485
0.203458
0.193446
0.183447
0.173458
0.163477
0.153502
0.143532
0.133567
0.123604
0.113643
0.103684
0.0937264
0.0837695
0.0738132
0.0638574
0.0539019
0.0439465
0.0339914
0.0240363
0.0140813
0.00412635
-0.00582857
-0.0157835
-0.0257383
-0.0356932
-0.0456481
-0.0556029
-0.0655578
-0.0755127
-0.0854675
-0.0954224
-0.105377
-0.115332
-0.125287
-0.135242
-0.145196
-0.155149
-0.165096
-0.175051
0.175051
1.11022
1.11022
1.0872
1.05254
1.01549
0.979637
0.946453
0.91641
0.889418
0.865101
0.842985
0.822622
0.80363
0.785713
0.768649
0.752275
0.736473
0.721154
0.706254
0.691721
0.677515
0.663605
0.649963
0.636566
0.623395
0.610431
0.59766
0.585067
0.572639
0.560367
0.548239
0.536246
0.524378
0.51263
0.500992
0.489458
0.478022
0.466678
0.45542
0.444244
0.433146
0.42212
0.411164
0.400274
0.389449
0.378686
0.367984
0.357341
0.346756
0.336228
0.325755
0.315336
0.304968
0.29465
0.284378
0.274149
0.263961
0.253808
0.243688
0.233596
0.22353
0.213485
0.203458
0.193446
0.183447
0.173457
0.163476
0.153502
0.143532
0.133566
0.123604
0.113643
0.103684
0.0937264
0.0837695
0.0738132
0.0638574
0.0539018
0.0439465
0.0339914
0.0240363
0.0140813
0.00412635
-0.00582857
-0.0157835
-0.0257383
-0.0356932
-0.0456481
-0.0556029
-0.0655578
-0.0755127
-0.0854675
-0.0954224
-0.105377
-0.115332
-0.125287
-0.135242
-0.145196
-0.15515
-0.165098
-0.175051
0.175051
1.11554
1.11554
1.08883
1.05252
1.0149
0.97887
0.945684
0.915721
0.888841
0.864636
0.842621
0.822338
0.803407
0.785536
0.768506
0.752158
0.736374
0.72107
0.70618
0.691656
0.677458
0.663554
0.649918
0.636525
0.623358
0.610397
0.597629
0.585039
0.572614
0.560344
0.548217
0.536226
0.52436
0.512613
0.500976
0.489444
0.478009
0.466666
0.455409
0.444234
0.433135
0.42211
0.411155
0.400266
0.389441
0.378678
0.367977
0.357334
0.346749
0.336221
0.325749
0.31533
0.304963
0.294645
0.284374
0.274145
0.263957
0.253805
0.243685
0.233594
0.223528
0.213483
0.203456
0.193445
0.183446
0.173457
0.163476
0.153501
0.143532
0.133566
0.123604
0.113643
0.103684
0.0937263
0.0837694
0.0738132
0.0638573
0.0539018
0.0439465
0.0339914
0.0240363
0.0140813
0.00412635
-0.00582857
-0.0157835
-0.0257383
-0.0356932
-0.0456481
-0.0556029
-0.0655578
-0.0755127
-0.0854675
-0.0954224
-0.105377
-0.115332
-0.125287
-0.135242
-0.145196
-0.15515
-0.165102
-0.175053
0.175053
1.12511
1.12511
1.09132
1.05241
1.01395
0.977675
0.944507
0.914684
0.887988
0.863964
0.842104
0.821943
0.803105
0.785302
0.768321
0.752008
0.736251
0.720967
0.706092
0.69158
0.677392
0.663496
0.649866
0.636479
0.623316
0.61036
0.597595
0.585008
0.572586
0.560318
0.548194
0.536205
0.524341
0.512595
0.50096
0.489428
0.477995
0.466653
0.455397
0.444222
0.433125
0.422101
0.411146
0.400257
0.389433
0.378671
0.367969
0.357327
0.346743
0.336216
0.325744
0.315325
0.304958
0.294641
0.28437
0.274142
0.263954
0.253803
0.243683
0.233592
0.223526
0.213482
0.203455
0.193444
0.183445
0.173456
0.163476
0.153501
0.143532
0.133566
0.123603
0.113643
0.103684
0.0937263
0.0837694
0.0738132
0.0638573
0.0539018
0.0439465
0.0339914
0.0240363
0.0140813
0.00412635
-0.00582857
-0.0157835
-0.0257383
-0.0356932
-0.0456481
-0.0556029
-0.0655578
-0.0755127
-0.0854675
-0.0954224
-0.105377
-0.115332
-0.125287
-0.135242
-0.145196
-0.155151
-0.165105
-0.175055
0.175055
1.14009
1.14009
1.0942
1.05218
1.01283
0.976351
0.943246
0.913606
0.887126
0.863305
0.841611
0.821578
0.802833
0.785097
0.768163
0.751883
0.73615
0.720883
0.706021
0.691519
0.677339
0.663449
0.649824
0.636442
0.623283
0.61033
0.597568
0.584983
0.572564
0.560298
0.548175
0.536187
0.524325
0.51258
0.500946
0.489416
0.477983
0.466642
0.455387
0.444213
0.433116
0.422092
0.411138
0.40025
0.389426
0.378665
0.367964
0.357322
0.346739
0.336212
0.32574
0.315323
0.304956
0.294639
0.284369
0.274141
0.263954
0.253802
0.243683
0.233592
0.223526
0.213482
0.203456
0.193444
0.183445
0.173456
0.163476
0.153501
0.143532
0.133566
0.123603
0.113643
0.103684
0.0937263
0.0837694
0.0738132
0.0638574
0.0539018
0.0439465
0.0339914
0.0240363
0.0140813
0.00412635
-0.00582856
-0.0157835
-0.0257383
-0.0356932
-0.0456481
-0.0556029
-0.0655578
-0.0755127
-0.0854675
-0.0954224
-0.105377
-0.115332
-0.125287
-0.135242
-0.145196
-0.155151
-0.165107
-0.175056
0.175056
1.16103
1.16103
1.09619
1.05195
1.01213
0.975555
0.942503
0.912975
0.886619
0.86291
0.841308
0.821344
0.802651
0.784952
0.768045
0.751786
0.736067
0.720811
0.705959
0.691464
0.67729
0.663405
0.649784
0.636405
0.62325
0.610299
0.59754
0.584957
0.57254
0.560275
0.548155
0.536168
0.524307
0.512564
0.500931
0.489401
0.477969
0.466629
0.455375
0.444202
0.433106
0.422083
0.411129
0.400242
0.389419
0.378658
0.367958
0.357317
0.346734
0.336208
0.325737
0.31532
0.304954
0.294637
0.284367
0.27414
0.263953
0.253802
0.243683
0.233592
0.223526
0.213482
0.203456
0.193444
0.183445
0.173457
0.163476
0.153501
0.143532
0.133566
0.123604
0.113643
0.103684
0.0937263
0.0837695
0.0738132
0.0638574
0.0539018
0.0439465
0.0339914
0.0240363
0.0140813
0.00412635
-0.00582856
-0.0157835
-0.0257383
-0.0356932
-0.0456481
-0.0556029
-0.0655578
-0.0755127
-0.0854675
-0.0954224
-0.105377
-0.115332
-0.125287
-0.135242
-0.145196
-0.155151
-0.165107
-0.175057
0.175057
1.16103
1.16103
1.09619
1.05195
1.01213
0.975555
0.942503
0.912975
0.886619
0.86291
0.841308
0.821344
0.802651
0.784952
0.768045
0.751786
0.736067
0.720811
0.705959
0.691464
0.67729
0.663405
0.649784
0.636405
0.62325
0.610299
0.59754
0.584957
0.57254
0.560275
0.548155
0.536168
0.524307
0.512564
0.500931
0.489401
0.477969
0.466629
0.455375
0.444202
0.433106
0.422083
0.411129
0.400242
0.389419
0.378658
0.367958
0.357317
0.346734
0.336208
0.325737
0.31532
0.304954
0.294637
0.284367
0.27414
0.263953
0.253802
0.243683
0.233592
0.223526
0.213482
0.203456
0.193444
0.183445
0.173457
0.163476
0.153501
0.143532
0.133566
0.123604
0.113643
0.103684
0.0937263
0.0837695
0.0738132
0.0638574
0.0539018
0.0439465
0.0339914
0.0240363
0.0140813
0.00412635
-0.00582856
-0.0157835
-0.0257383
-0.0356932
-0.0456481
-0.0556029
-0.0655578
-0.0755127
-0.0854675
-0.0954224
-0.105377
-0.115332
-0.125287
-0.135242
-0.145196
-0.155151
-0.165107
-0.175057
0.175057
