# vtk DataFile Version 2.0
FlowField
ASCII
DATASET STRUCTURED_GRID
DIMENSIONS 102 1 12 
POINTS 1224 double
0 0 0
0.4 0 0
0.8 0 0
1.2 0 0
1.6 0 0
2 0 0
2.4 0 0
2.8 0 0
3.2 0 0
3.6 0 0
4 0 0
4.4 0 0
4.8 0 0
5.2 0 0
5.6 0 0
6 0 0
6.4 0 0
6.8 0 0
7.2 0 0
7.6 0 0
8 0 0
8.4 0 0
8.8 0 0
9.2 0 0
9.6 0 0
10 0 0
10.4 0 0
10.8 0 0
11.2 0 0
11.6 0 0
12 0 0
12.4 0 0
12.8 0 0
13.2 0 0
13.6 0 0
14 0 0
14.4 0 0
14.8 0 0
15.2 0 0
15.6 0 0
16 0 0
16.4 0 0
16.8 0 0
17.2 0 0
17.6 0 0
18 0 0
18.4 0 0
18.8 0 0
19.2 0 0
19.6 0 0
20 0 0
20.4 0 0
20.8 0 0
21.2 0 0
21.6 0 0
22 0 0
22.4 0 0
22.8 0 0
23.2 0 0
23.6 0 0
24 0 0
24.4 0 0
24.8 0 0
25.2 0 0
25.6 0 0
26 0 0
26.4 0 0
26.8 0 0
27.2 0 0
27.6 0 0
28 0 0
28.4 0 0
28.8 0 0
29.2 0 0
29.6 0 0
30 0 0
30.4 0 0
30.8 0 0
31.2 0 0
31.6 0 0
32 0 0
32.4 0 0
32.8 0 0
33.2 0 0
33.6 0 0
34 0 0
34.4 0 0
34.8 0 0
35.2 0 0
35.6 0 0
36 0 0
36.4 0 0
36.8 0 0
37.2 0 0
37.6 0 0
38 0 0
38.4 0 0
38.8 0 0
39.2 0 0
39.6 0 0
40 0 0
40.4 0 0
0 0.1 0
0.4 0.1 0
0.8 0.1 0
1.2 0.1 0
1.6 0.1 0
2 0.1 0
2.4 0.1 0
2.8 0.1 0
3.2 0.1 0
3.6 0.1 0
4 0.1 0
4.4 0.1 0
4.8 0.1 0
5.2 0.1 0
5.6 0.1 0
6 0.1 0
6.4 0.1 0
6.8 0.1 0
7.2 0.1 0
7.6 0.1 0
8 0.1 0
8.4 0.1 0
8.8 0.1 0
9.2 0.1 0
9.6 0.1 0
10 0.1 0
10.4 0.1 0
10.8 0.1 0
11.2 0.1 0
11.6 0.1 0
12 0.1 0
12.4 0.1 0
12.8 0.1 0
13.2 0.1 0
13.6 0.1 0
14 0.1 0
14.4 0.1 0
14.8 0.1 0
15.2 0.1 0
15.6 0.1 0
16 0.1 0
16.4 0.1 0
16.8 0.1 0
17.2 0.1 0
17.6 0.1 0
18 0.1 0
18.4 0.1 0
18.8 0.1 0
19.2 0.1 0
19.6 0.1 0
20 0.1 0
20.4 0.1 0
20.8 0.1 0
21.2 0.1 0
21.6 0.1 0
22 0.1 0
22.4 0.1 0
22.8 0.1 0
23.2 0.1 0
23.6 0.1 0
24 0.1 0
24.4 0.1 0
24.8 0.1 0
25.2 0.1 0
25.6 0.1 0
26 0.1 0
26.4 0.1 0
26.8 0.1 0
27.2 0.1 0
27.6 0.1 0
28 0.1 0
28.4 0.1 0
28.8 0.1 0
29.2 0.1 0
29.6 0.1 0
30 0.1 0
30.4 0.1 0
30.8 0.1 0
31.2 0.1 0
31.6 0.1 0
32 0.1 0
32.4 0.1 0
32.8 0.1 0
33.2 0.1 0
33.6 0.1 0
34 0.1 0
34.4 0.1 0
34.8 0.1 0
35.2 0.1 0
35.6 0.1 0
36 0.1 0
36.4 0.1 0
36.8 0.1 0
37.2 0.1 0
37.6 0.1 0
38 0.1 0
38.4 0.1 0
38.8 0.1 0
39.2 0.1 0
39.6 0.1 0
40 0.1 0
40.4 0.1 0
0 0.2 0
0.4 0.2 0
0.8 0.2 0
1.2 0.2 0
1.6 0.2 0
2 0.2 0
2.4 0.2 0
2.8 0.2 0
3.2 0.2 0
3.6 0.2 0
4 0.2 0
4.4 0.2 0
4.8 0.2 0
5.2 0.2 0
5.6 0.2 0
6 0.2 0
6.4 0.2 0
6.8 0.2 0
7.2 0.2 0
7.6 0.2 0
8 0.2 0
8.4 0.2 0
8.8 0.2 0
9.2 0.2 0
9.6 0.2 0
10 0.2 0
10.4 0.2 0
10.8 0.2 0
11.2 0.2 0
11.6 0.2 0
12 0.2 0
12.4 0.2 0
12.8 0.2 0
13.2 0.2 0
13.6 0.2 0
14 0.2 0
14.4 0.2 0
14.8 0.2 0
15.2 0.2 0
15.6 0.2 0
16 0.2 0
16.4 0.2 0
16.8 0.2 0
17.2 0.2 0
17.6 0.2 0
18 0.2 0
18.4 0.2 0
18.8 0.2 0
19.2 0.2 0
19.6 0.2 0
20 0.2 0
20.4 0.2 0
20.8 0.2 0
21.2 0.2 0
21.6 0.2 0
22 0.2 0
22.4 0.2 0
22.8 0.2 0
23.2 0.2 0
23.6 0.2 0
24 0.2 0
24.4 0.2 0
24.8 0.2 0
25.2 0.2 0
25.6 0.2 0
26 0.2 0
26.4 0.2 0
26.8 0.2 0
27.2 0.2 0
27.6 0.2 0
28 0.2 0
28.4 0.2 0
28.8 0.2 0
29.2 0.2 0
29.6 0.2 0
30 0.2 0
30.4 0.2 0
30.8 0.2 0
31.2 0.2 0
31.6 0.2 0
32 0.2 0
32.4 0.2 0
32.8 0.2 0
33.2 0.2 0
33.6 0.2 0
34 0.2 0
34.4 0.2 0
34.8 0.2 0
35.2 0.2 0
35.6 0.2 0
36 0.2 0
36.4 0.2 0
36.8 0.2 0
37.2 0.2 0
37.6 0.2 0
38 0.2 0
38.4 0.2 0
38.8 0.2 0
39.2 0.2 0
39.6 0.2 0
40 0.2 0
40.4 0.2 0
0 0.3 0
0.4 0.3 0
0.8 0.3 0
1.2 0.3 0
1.6 0.3 0
2 0.3 0
2.4 0.3 0
2.8 0.3 0
3.2 0.3 0
3.6 0.3 0
4 0.3 0
4.4 0.3 0
4.8 0.3 0
5.2 0.3 0
5.6 0.3 0
6 0.3 0
6.4 0.3 0
6.8 0.3 0
7.2 0.3 0
7.6 0.3 0
8 0.3 0
8.4 0.3 0
8.8 0.3 0
9.2 0.3 0
9.6 0.3 0
10 0.3 0
10.4 0.3 0
10.8 0.3 0
11.2 0.3 0
11.6 0.3 0
12 0.3 0
12.4 0.3 0
12.8 0.3 0
13.2 0.3 0
13.6 0.3 0
14 0.3 0
14.4 0.3 0
14.8 0.3 0
15.2 0.3 0
15.6 0.3 0
16 0.3 0
16.4 0.3 0
16.8 0.3 0
17.2 0.3 0
17.6 0.3 0
18 0.3 0
18.4 0.3 0
18.8 0.3 0
19.2 0.3 0
19.6 0.3 0
20 0.3 0
20.4 0.3 0
20.8 0.3 0
21.2 0.3 0
21.6 0.3 0
22 0.3 0
22.4 0.3 0
22.8 0.3 0
23.2 0.3 0
23.6 0.3 0
24 0.3 0
24.4 0.3 0
24.8 0.3 0
25.2 0.3 0
25.6 0.3 0
26 0.3 0
26.4 0.3 0
26.8 0.3 0
27.2 0.3 0
27.6 0.3 0
28 0.3 0
28.4 0.3 0
28.8 0.3 0
29.2 0.3 0
29.6 0.3 0
30 0.3 0
30.4 0.3 0
30.8 0.3 0
31.2 0.3 0
31.6 0.3 0
32 0.3 0
32.4 0.3 0
32.8 0.3 0
33.2 0.3 0
33.6 0.3 0
34 0.3 0
34.4 0.3 0
34.8 0.3 0
35.2 0.3 0
35.6 0.3 0
36 0.3 0
36.4 0.3 0
36.8 0.3 0
37.2 0.3 0
37.6 0.3 0
38 0.3 0
38.4 0.3 0
38.8 0.3 0
39.2 0.3 0
39.6 0.3 0
40 0.3 0
40.4 0.3 0
0 0.4 0
0.4 0.4 0
0.8 0.4 0
1.2 0.4 0
1.6 0.4 0
2 0.4 0
2.4 0.4 0
2.8 0.4 0
3.2 0.4 0
3.6 0.4 0
4 0.4 0
4.4 0.4 0
4.8 0.4 0
5.2 0.4 0
5.6 0.4 0
6 0.4 0
6.4 0.4 0
6.8 0.4 0
7.2 0.4 0
7.6 0.4 0
8 0.4 0
8.4 0.4 0
8.8 0.4 0
9.2 0.4 0
9.6 0.4 0
10 0.4 0
10.4 0.4 0
10.8 0.4 0
11.2 0.4 0
11.6 0.4 0
12 0.4 0
12.4 0.4 0
12.8 0.4 0
13.2 0.4 0
13.6 0.4 0
14 0.4 0
14.4 0.4 0
14.8 0.4 0
15.2 0.4 0
15.6 0.4 0
16 0.4 0
16.4 0.4 0
16.8 0.4 0
17.2 0.4 0
17.6 0.4 0
18 0.4 0
18.4 0.4 0
18.8 0.4 0
19.2 0.4 0
19.6 0.4 0
20 0.4 0
20.4 0.4 0
20.8 0.4 0
21.2 0.4 0
21.6 0.4 0
22 0.4 0
22.4 0.4 0
22.8 0.4 0
23.2 0.4 0
23.6 0.4 0
24 0.4 0
24.4 0.4 0
24.8 0.4 0
25.2 0.4 0
25.6 0.4 0
26 0.4 0
26.4 0.4 0
26.8 0.4 0
27.2 0.4 0
27.6 0.4 0
28 0.4 0
28.4 0.4 0
28.8 0.4 0
29.2 0.4 0
29.6 0.4 0
30 0.4 0
30.4 0.4 0
30.8 0.4 0
31.2 0.4 0
31.6 0.4 0
32 0.4 0
32.4 0.4 0
32.8 0.4 0
33.2 0.4 0
33.6 0.4 0
34 0.4 0
34.4 0.4 0
34.8 0.4 0
35.2 0.4 0
35.6 0.4 0
36 0.4 0
36.4 0.4 0
36.8 0.4 0
37.2 0.4 0
37.6 0.4 0
38 0.4 0
38.4 0.4 0
38.8 0.4 0
39.2 0.4 0
39.6 0.4 0
40 0.4 0
40.4 0.4 0
0 0.5 0
0.4 0.5 0
0.8 0.5 0
1.2 0.5 0
1.6 0.5 0
2 0.5 0
2.4 0.5 0
2.8 0.5 0
3.2 0.5 0
3.6 0.5 0
4 0.5 0
4.4 0.5 0
4.8 0.5 0
5.2 0.5 0
5.6 0.5 0
6 0.5 0
6.4 0.5 0
6.8 0.5 0
7.2 0.5 0
7.6 0.5 0
8 0.5 0
8.4 0.5 0
8.8 0.5 0
9.2 0.5 0
9.6 0.5 0
10 0.5 0
10.4 0.5 0
10.8 0.5 0
11.2 0.5 0
11.6 0.5 0
12 0.5 0
12.4 0.5 0
12.8 0.5 0
13.2 0.5 0
13.6 0.5 0
14 0.5 0
14.4 0.5 0
14.8 0.5 0
15.2 0.5 0
15.6 0.5 0
16 0.5 0
16.4 0.5 0
16.8 0.5 0
17.2 0.5 0
17.6 0.5 0
18 0.5 0
18.4 0.5 0
18.8 0.5 0
19.2 0.5 0
19.6 0.5 0
20 0.5 0
20.4 0.5 0
20.8 0.5 0
21.2 0.5 0
21.6 0.5 0
22 0.5 0
22.4 0.5 0
22.8 0.5 0
23.2 0.5 0
23.6 0.5 0
24 0.5 0
24.4 0.5 0
24.8 0.5 0
25.2 0.5 0
25.6 0.5 0
26 0.5 0
26.4 0.5 0
26.8 0.5 0
27.2 0.5 0
27.6 0.5 0
28 0.5 0
28.4 0.5 0
28.8 0.5 0
29.2 0.5 0
29.6 0.5 0
30 0.5 0
30.4 0.5 0
30.8 0.5 0
31.2 0.5 0
31.6 0.5 0
32 0.5 0
32.4 0.5 0
32.8 0.5 0
33.2 0.5 0
33.6 0.5 0
34 0.5 0
34.4 0.5 0
34.8 0.5 0
35.2 0.5 0
35.6 0.5 0
36 0.5 0
36.4 0.5 0
36.8 0.5 0
37.2 0.5 0
37.6 0.5 0
38 0.5 0
38.4 0.5 0
38.8 0.5 0
39.2 0.5 0
39.6 0.5 0
40 0.5 0
40.4 0.5 0
0 0.6 0
0.4 0.6 0
0.8 0.6 0
1.2 0.6 0
1.6 0.6 0
2 0.6 0
2.4 0.6 0
2.8 0.6 0
3.2 0.6 0
3.6 0.6 0
4 0.6 0
4.4 0.6 0
4.8 0.6 0
5.2 0.6 0
5.6 0.6 0
6 0.6 0
6.4 0.6 0
6.8 0.6 0
7.2 0.6 0
7.6 0.6 0
8 0.6 0
8.4 0.6 0
8.8 0.6 0
9.2 0.6 0
9.6 0.6 0
10 0.6 0
10.4 0.6 0
10.8 0.6 0
11.2 0.6 0
11.6 0.6 0
12 0.6 0
12.4 0.6 0
12.8 0.6 0
13.2 0.6 0
13.6 0.6 0
14 0.6 0
14.4 0.6 0
14.8 0.6 0
15.2 0.6 0
15.6 0.6 0
16 0.6 0
16.4 0.6 0
16.8 0.6 0
17.2 0.6 0
17.6 0.6 0
18 0.6 0
18.4 0.6 0
18.8 0.6 0
19.2 0.6 0
19.6 0.6 0
20 0.6 0
20.4 0.6 0
20.8 0.6 0
21.2 0.6 0
21.6 0.6 0
22 0.6 0
22.4 0.6 0
22.8 0.6 0
23.2 0.6 0
23.6 0.6 0
24 0.6 0
24.4 0.6 0
24.8 0.6 0
25.2 0.6 0
25.6 0.6 0
26 0.6 0
26.4 0.6 0
26.8 0.6 0
27.2 0.6 0
27.6 0.6 0
28 0.6 0
28.4 0.6 0
28.8 0.6 0
29.2 0.6 0
29.6 0.6 0
30 0.6 0
30.4 0.6 0
30.8 0.6 0
31.2 0.6 0
31.6 0.6 0
32 0.6 0
32.4 0.6 0
32.8 0.6 0
33.2 0.6 0
33.6 0.6 0
34 0.6 0
34.4 0.6 0
34.8 0.6 0
35.2 0.6 0
35.6 0.6 0
36 0.6 0
36.4 0.6 0
36.8 0.6 0
37.2 0.6 0
37.6 0.6 0
38 0.6 0
38.4 0.6 0
38.8 0.6 0
39.2 0.6 0
39.6 0.6 0
40 0.6 0
40.4 0.6 0
0 0.7 0
0.4 0.7 0
0.8 0.7 0
1.2 0.7 0
1.6 0.7 0
2 0.7 0
2.4 0.7 0
2.8 0.7 0
3.2 0.7 0
3.6 0.7 0
4 0.7 0
4.4 0.7 0
4.8 0.7 0
5.2 0.7 0
5.6 0.7 0
6 0.7 0
6.4 0.7 0
6.8 0.7 0
7.2 0.7 0
7.6 0.7 0
8 0.7 0
8.4 0.7 0
8.8 0.7 0
9.2 0.7 0
9.6 0.7 0
10 0.7 0
10.4 0.7 0
10.8 0.7 0
11.2 0.7 0
11.6 0.7 0
12 0.7 0
12.4 0.7 0
12.8 0.7 0
13.2 0.7 0
13.6 0.7 0
14 0.7 0
14.4 0.7 0
14.8 0.7 0
15.2 0.7 0
15.6 0.7 0
16 0.7 0
16.4 0.7 0
16.8 0.7 0
17.2 0.7 0
17.6 0.7 0
18 0.7 0
18.4 0.7 0
18.8 0.7 0
19.2 0.7 0
19.6 0.7 0
20 0.7 0
20.4 0.7 0
20.8 0.7 0
21.2 0.7 0
21.6 0.7 0
22 0.7 0
22.4 0.7 0
22.8 0.7 0
23.2 0.7 0
23.6 0.7 0
24 0.7 0
24.4 0.7 0
24.8 0.7 0
25.2 0.7 0
25.6 0.7 0
26 0.7 0
26.4 0.7 0
26.8 0.7 0
27.2 0.7 0
27.6 0.7 0
28 0.7 0
28.4 0.7 0
28.8 0.7 0
29.2 0.7 0
29.6 0.7 0
30 0.7 0
30.4 0.7 0
30.8 0.7 0
31.2 0.7 0
31.6 0.7 0
32 0.7 0
32.4 0.7 0
32.8 0.7 0
33.2 0.7 0
33.6 0.7 0
34 0.7 0
34.4 0.7 0
34.8 0.7 0
35.2 0.7 0
35.6 0.7 0
36 0.7 0
36.4 0.7 0
36.8 0.7 0
37.2 0.7 0
37.6 0.7 0
38 0.7 0
38.4 0.7 0
38.8 0.7 0
39.2 0.7 0
39.6 0.7 0
40 0.7 0
40.4 0.7 0
0 0.8 0
0.4 0.8 0
0.8 0.8 0
1.2 0.8 0
1.6 0.8 0
2 0.8 0
2.4 0.8 0
2.8 0.8 0
3.2 0.8 0
3.6 0.8 0
4 0.8 0
4.4 0.8 0
4.8 0.8 0
5.2 0.8 0
5.6 0.8 0
6 0.8 0
6.4 0.8 0
6.8 0.8 0
7.2 0.8 0
7.6 0.8 0
8 0.8 0
8.4 0.8 0
8.8 0.8 0
9.2 0.8 0
9.6 0.8 0
10 0.8 0
10.4 0.8 0
10.8 0.8 0
11.2 0.8 0
11.6 0.8 0
12 0.8 0
12.4 0.8 0
12.8 0.8 0
13.2 0.8 0
13.6 0.8 0
14 0.8 0
14.4 0.8 0
14.8 0.8 0
15.2 0.8 0
15.6 0.8 0
16 0.8 0
16.4 0.8 0
16.8 0.8 0
17.2 0.8 0
17.6 0.8 0
18 0.8 0
18.4 0.8 0
18.8 0.8 0
19.2 0.8 0
19.6 0.8 0
20 0.8 0
20.4 0.8 0
20.8 0.8 0
21.2 0.8 0
21.6 0.8 0
22 0.8 0
22.4 0.8 0
22.8 0.8 0
23.2 0.8 0
23.6 0.8 0
24 0.8 0
24.4 0.8 0
24.8 0.8 0
25.2 0.8 0
25.6 0.8 0
26 0.8 0
26.4 0.8 0
26.8 0.8 0
27.2 0.8 0
27.6 0.8 0
28 0.8 0
28.4 0.8 0
28.8 0.8 0
29.2 0.8 0
29.6 0.8 0
30 0.8 0
30.4 0.8 0
30.8 0.8 0
31.2 0.8 0
31.6 0.8 0
32 0.8 0
32.4 0.8 0
32.8 0.8 0
33.2 0.8 0
33.6 0.8 0
34 0.8 0
34.4 0.8 0
34.8 0.8 0
35.2 0.8 0
35.6 0.8 0
36 0.8 0
36.4 0.8 0
36.8 0.8 0
37.2 0.8 0
37.6 0.8 0
38 0.8 0
38.4 0.8 0
38.8 0.8 0
39.2 0.8 0
39.6 0.8 0
40 0.8 0
40.4 0.8 0
0 0.9 0
0.4 0.9 0
0.8 0.9 0
1.2 0.9 0
1.6 0.9 0
2 0.9 0
2.4 0.9 0
2.8 0.9 0
3.2 0.9 0
3.6 0.9 0
4 0.9 0
4.4 0.9 0
4.8 0.9 0
5.2 0.9 0
5.6 0.9 0
6 0.9 0
6.4 0.9 0
6.8 0.9 0
7.2 0.9 0
7.6 0.9 0
8 0.9 0
8.4 0.9 0
8.8 0.9 0
9.2 0.9 0
9.6 0.9 0
10 0.9 0
10.4 0.9 0
10.8 0.9 0
11.2 0.9 0
11.6 0.9 0
12 0.9 0
12.4 0.9 0
12.8 0.9 0
13.2 0.9 0
13.6 0.9 0
14 0.9 0
14.4 0.9 0
14.8 0.9 0
15.2 0.9 0
15.6 0.9 0
16 0.9 0
16.4 0.9 0
16.8 0.9 0
17.2 0.9 0
17.6 0.9 0
18 0.9 0
18.4 0.9 0
18.8 0.9 0
19.2 0.9 0
19.6 0.9 0
20 0.9 0
20.4 0.9 0
20.8 0.9 0
21.2 0.9 0
21.6 0.9 0
22 0.9 0
22.4 0.9 0
22.8 0.9 0
23.2 0.9 0
23.6 0.9 0
24 0.9 0
24.4 0.9 0
24.8 0.9 0
25.2 0.9 0
25.6 0.9 0
26 0.9 0
26.4 0.9 0
26.8 0.9 0
27.2 0.9 0
27.6 0.9 0
28 0.9 0
28.4 0.9 0
28.8 0.9 0
29.2 0.9 0
29.6 0.9 0
30 0.9 0
30.4 0.9 0
30.8 0.9 0
31.2 0.9 0
31.6 0.9 0
32 0.9 0
32.4 0.9 0
32.8 0.9 0
33.2 0.9 0
33.6 0.9 0
34 0.9 0
34.4 0.9 0
34.8 0.9 0
35.2 0.9 0
35.6 0.9 0
36 0.9 0
36.4 0.9 0
36.8 0.9 0
37.2 0.9 0
37.6 0.9 0
38 0.9 0
38.4 0.9 0
38.8 0.9 0
39.2 0.9 0
39.6 0.9 0
40 0.9 0
40.4 0.9 0
0 1 0
0.4 1 0
0.8 1 0
1.2 1 0
1.6 1 0
2 1 0
2.4 1 0
2.8 1 0
3.2 1 0
3.6 1 0
4 1 0
4.4 1 0
4.8 1 0
5.2 1 0
5.6 1 0
6 1 0
6.4 1 0
6.8 1 0
7.2 1 0
7.6 1 0
8 1 0
8.4 1 0
8.8 1 0
9.2 1 0
9.6 1 0
10 1 0
10.4 1 0
10.8 1 0
11.2 1 0
11.6 1 0
12 1 0
12.4 1 0
12.8 1 0
13.2 1 0
13.6 1 0
14 1 0
14.4 1 0
14.8 1 0
15.2 1 0
15.6 1 0
16 1 0
16.4 1 0
16.8 1 0
17.2 1 0
17.6 1 0
18 1 0
18.4 1 0
18.8 1 0
19.2 1 0
19.6 1 0
20 1 0
20.4 1 0
20.8 1 0
21.2 1 0
21.6 1 0
22 1 0
22.4 1 0
22.8 1 0
23.2 1 0
23.6 1 0
24 1 0
24.4 1 0
24.8 1 0
25.2 1 0
25.6 1 0
26 1 0
26.4 1 0
26.8 1 0
27.2 1 0
27.6 1 0
28 1 0
28.4 1 0
28.8 1 0
29.2 1 0
29.6 1 0
30 1 0
30.4 1 0
30.8 1 0
31.2 1 0
31.6 1 0
32 1 0
32.4 1 0
32.8 1 0
33.2 1 0
33.6 1 0
34 1 0
34.4 1 0
34.8 1 0
35.2 1 0
35.6 1 0
36 1 0
36.4 1 0
36.8 1 0
37.2 1 0
37.6 1 0
38 1 0
38.4 1 0
38.8 1 0
39.2 1 0
39.6 1 0
40 1 0
40.4 1 0
0 1.1 0
0.4 1.1 0
0.8 1.1 0
1.2 1.1 0
1.6 1.1 0
2 1.1 0
2.4 1.1 0
2.8 1.1 0
3.2 1.1 0
3.6 1.1 0
4 1.1 0
4.4 1.1 0
4.8 1.1 0
5.2 1.1 0
5.6 1.1 0
6 1.1 0
6.4 1.1 0
6.8 1.1 0
7.2 1.1 0
7.6 1.1 0
8 1.1 0
8.4 1.1 0
8.8 1.1 0
9.2 1.1 0
9.6 1.1 0
10 1.1 0
10.4 1.1 0
10.8 1.1 0
11.2 1.1 0
11.6 1.1 0
12 1.1 0
12.4 1.1 0
12.8 1.1 0
13.2 1.1 0
13.6 1.1 0
14 1.1 0
14.4 1.1 0
14.8 1.1 0
15.2 1.1 0
15.6 1.1 0
16 1.1 0
16.4 1.1 0
16.8 1.1 0
17.2 1.1 0
17.6 1.1 0
18 1.1 0
18.4 1.1 0
18.8 1.1 0
19.2 1.1 0
19.6 1.1 0
20 1.1 0
20.4 1.1 0
20.8 1.1 0
21.2 1.1 0
21.6 1.1 0
22 1.1 0
22.4 1.1 0
22.8 1.1 0
23.2 1.1 0
23.6 1.1 0
24 1.1 0
24.4 1.1 0
24.8 1.1 0
25.2 1.1 0
25.6 1.1 0
26 1.1 0
26.4 1.1 0
26.8 1.1 0
27.2 1.1 0
27.6 1.1 0
28 1.1 0
28.4 1.1 0
28.8 1.1 0
29.2 1.1 0
29.6 1.1 0
30 1.1 0
30.4 1.1 0
30.8 1.1 0
31.2 1.1 0
31.6 1.1 0
32 1.1 0
32.4 1.1 0
32.8 1.1 0
33.2 1.1 0
33.6 1.1 0
34 1.1 0
34.4 1.1 0
34.8 1.1 0
35.2 1.1 0
35.6 1.1 0
36 1.1 0
36.4 1.1 0
36.8 1.1 0
37.2 1.1 0
37.6 1.1 0
38 1.1 0
38.4 1.1 0
38.8 1.1 0
39.2 1.1 0
39.6 1.1 0
40 1.1 0
40.4 1.1 0

POINT_DATA 1224

SCALARS u double
LOOKUP_TABLE default
-1
-0.80718
-0.659027
-0.550101
-0.474363
-0.423321
-0.389
-0.365438
-0.348706
-0.336385
-0.327021
-0.319734
-0.313975
-0.309378
-0.305692
-0.302731
-0.300355
-0.298453
-0.296939
-0.295741
-0.2948
-0.294071
-0.293512
-0.293091
-0.292781
-0.29256
-0.292409
-0.292314
-0.292263
-0.292246
-0.292257
-0.292291
-0.292347
-0.292416
-0.292494
-0.292576
-0.292659
-0.29274
-0.292817
-0.292888
-0.292952
-0.293008
-0.293056
-0.293095
-0.293127
-0.293151
-0.29317
-0.293184
-0.293193
-0.2932
-0.293204
-0.293206
-0.293207
-0.293208
-0.293207
-0.293207
-0.293207
-0.293206
-0.293206
-0.293205
-0.293205
-0.293204
-0.293204
-0.293204
-0.293204
-0.293204
-0.293203
-0.293203
-0.293203
-0.293203
-0.293203
-0.293203
-0.293203
-0.293203
-0.293203
-0.293203
-0.293203
-0.293203
-0.293203
-0.293203
-0.293203
-0.293203
-0.293203
-0.293203
-0.293203
-0.293203
-0.293203
-0.293203
-0.293203
-0.293203
-0.293204
-0.293205
-0.293215
-0.293236
-0.29337
-0.29369
-0.295566
-0.300335
-0.327534
-0.371019
-1
-0.371019
1
0.80718
0.659027
0.550101
0.474363
0.423321
0.389
0.365438
0.348706
0.336385
0.327021
0.319734
0.313975
0.309378
0.305692
0.302731
0.300355
0.298453
0.296939
0.295741
0.2948
0.294071
0.293512
0.293091
0.292781
0.29256
0.292409
0.292314
0.292263
0.292246
0.292256
0.292291
0.292346
0.292415
0.292493
0.292574
0.292657
0.292738
0.292815
0.292886
0.29295
0.293006
0.293054
0.293093
0.293125
0.29315
0.293168
0.293182
0.293192
0.293198
0.293202
0.293205
0.293206
0.293206
0.293206
0.293206
0.293205
0.293205
0.293204
0.293204
0.293203
0.293203
0.293203
0.293202
0.293202
0.293202
0.293202
0.293202
0.293202
0.293202
0.293202
0.293202
0.293202
0.293202
0.293202
0.293202
0.293202
0.293202
0.293202
0.293202
0.293202
0.293202
0.293202
0.293202
0.293202
0.293202
0.293202
0.293202
0.293202
0.293202
0.293202
0.293204
0.293213
0.293234
0.293368
0.293688
0.295564
0.300334
0.327533
0.371018
1
0.371019
1
1.02373
1.02809
1.01223
0.983935
0.950688
0.917729
0.887957
0.86251
0.841467
0.824393
0.810677
0.799714
0.790972
0.784012
0.778481
0.774096
0.770634
0.767916
0.765797
0.764162
0.762915
0.76198
0.761294
0.760804
0.76047
0.760258
0.76014
0.760096
0.760107
0.760163
0.760249
0.760364
0.760502
0.760656
0.76082
0.760987
0.761152
0.761311
0.761458
0.761591
0.761707
0.761807
0.761889
0.761955
0.762006
0.762045
0.762073
0.762092
0.762104
0.762112
0.762116
0.762118
0.762118
0.762117
0.762116
0.762114
0.762113
0.762112
0.762111
0.76211
0.762109
0.762109
0.762108
0.762108
0.762108
0.762108
0.762108
0.762107
0.762107
0.762107
0.762107
0.762107
0.762107
0.762107
0.762107
0.762107
0.762107
0.762107
0.762107
0.762107
0.762107
0.762107
0.762107
0.762107
0.762107
0.762107
0.762107
0.762107
0.762107
0.762107
0.762108
0.762111
0.762117
0.762173
0.762248
0.763119
0.763927
0.777633
0.791968
1
0.791971
1
1.04017
1.08473
1.11989
1.14301
1.15539
1.15973
1.15877
1.15476
1.1493
1.14344
1.13781
1.13272
1.12832
1.12461
1.12157
1.11911
1.11717
1.11565
1.11449
1.11361
1.11297
1.11251
1.1122
1.112
1.11188
1.11183
1.11182
1.11185
1.1119
1.11198
1.11206
1.11215
1.11224
1.11234
1.11244
1.11254
1.11264
1.11275
1.11284
1.11293
1.11302
1.11309
1.11315
1.1132
1.11324
1.11328
1.1133
1.11332
1.11333
1.11333
1.11334
1.11334
1.11334
1.11334
1.11334
1.11334
1.11334
1.11333
1.11333
1.11333
1.11333
1.11333
1.11333
1.11333
1.11333
1.11333
1.11333
1.11333
1.11333
1.11333
1.11333
1.11333
1.11333
1.11333
1.11333
1.11333
1.11333
1.11333
1.11333
1.11333
1.11333
1.11333
1.11333
1.11333
1.11333
1.11333
1.11333
1.11333
1.11333
1.11333
1.11333
1.11333
1.11332
1.11332
1.1132
1.11317
1.11168
1.10957
1.10222
1
1.10222
1
1.03766
1.08576
1.13255
1.17421
1.20955
1.23861
1.26203
1.28064
1.29531
1.30682
1.31583
1.32289
1.32843
1.33279
1.33622
1.33893
1.34107
1.34276
1.34409
1.34513
1.34594
1.34656
1.34704
1.34739
1.34764
1.34782
1.34794
1.34801
1.34804
1.34804
1.34802
1.34797
1.3479
1.34783
1.34774
1.34765
1.34756
1.34748
1.3474
1.34733
1.34727
1.34722
1.34718
1.34714
1.34712
1.3471
1.34709
1.34708
1.34707
1.34707
1.34707
1.34707
1.34707
1.34707
1.34707
1.34707
1.34707
1.34707
1.34707
1.34707
1.34707
1.34707
1.34707
1.34707
1.34707
1.34707
1.34707
1.34707
1.34707
1.34707
1.34707
1.34707
1.34707
1.34707
1.34707
1.34707
1.34707
1.34707
1.34707
1.34707
1.34707
1.34707
1.34707
1.34707
1.34707
1.34707
1.34707
1.34707
1.34707
1.34707
1.34707
1.34707
1.34706
1.347
1.3469
1.34596
1.34495
1.3291
1.32602
1
1.32602
1
1.03576
1.08266
1.1305
1.17621
1.21854
1.25697
1.29129
1.32149
1.34769
1.37013
1.38912
1.405
1.41816
1.42896
1.43773
1.44479
1.45042
1.45486
1.45832
1.46099
1.463
1.4645
1.46558
1.46633
1.46683
1.46712
1.46727
1.4673
1.46725
1.46713
1.46696
1.46676
1.46653
1.46628
1.46601
1.46574
1.46548
1.46522
1.46497
1.46474
1.46454
1.46436
1.46421
1.46409
1.46399
1.46391
1.46385
1.46381
1.46378
1.46377
1.46376
1.46375
1.46375
1.46375
1.46375
1.46375
1.46376
1.46376
1.46376
1.46376
1.46376
1.46377
1.46377
1.46377
1.46377
1.46377
1.46377
1.46377
1.46377
1.46377
1.46377
1.46377
1.46377
1.46377
1.46377
1.46377
1.46377
1.46377
1.46377
1.46377
1.46377
1.46377
1.46377
1.46377
1.46377
1.46377
1.46377
1.46377
1.46377
1.46377
1.46377
1.46376
1.46376
1.46364
1.46366
1.46199
1.46218
1.43765
1.44392
1
1.44391
1
1.03576
1.08266
1.1305
1.17621
1.21854
1.25697
1.29129
1.32149
1.34769
1.37013
1.38912
1.405
1.41816
1.42896
1.43773
1.44479
1.45042
1.45486
1.45832
1.46099
1.463
1.4645
1.46558
1.46633
1.46683
1.46713
1.46727
1.4673
1.46725
1.46713
1.46696
1.46676
1.46653
1.46628
1.46601
1.46574
1.46548
1.46522
1.46497
1.46474
1.46454
1.46436
1.46421
1.46409
1.46399
1.46391
1.46385
1.46381
1.46378
1.46377
1.46376
1.46375
1.46375
1.46375
1.46375
1.46375
1.46376
1.46376
1.46376
1.46376
1.46376
1.46377
1.46377
1.46377
1.46377
1.46377
1.46377
1.46377
1.46377
1.46377
1.46377
1.46377
1.46377
1.46377
1.46377
1.46377
1.46377
1.46377
1.46377
1.46377
1.46377
1.46377
1.46377
1.46377
1.46377
1.46377
1.46377
1.46377
1.46377
1.46377
1.46377
1.46376
1.46376
1.46364
1.46366
1.46199
1.46218
1.43765
1.44392
1
1.44391
1
1.03766
1.08576
1.13255
1.17421
1.20955
1.23861
1.26203
1.28064
1.29531
1.30682
1.31583
1.32289
1.32843
1.33279
1.33622
1.33893
1.34107
1.34276
1.34409
1.34513
1.34594
1.34656
1.34704
1.34739
1.34764
1.34782
1.34794
1.34801
1.34804
1.34804
1.34802
1.34797
1.34791
1.34783
1.34774
1.34765
1.34756
1.34748
1.3474
1.34733
1.34727
1.34722
1.34718
1.34714
1.34712
1.3471
1.34709
1.34708
1.34707
1.34707
1.34707
1.34707
1.34707
1.34707
1.34707
1.34707
1.34707
1.34707
1.34707
1.34707
1.34707
1.34707
1.34707
1.34707
1.34707
1.34707
1.34707
1.34707
1.34707
1.34707
1.34707
1.34707
1.34707
1.34707
1.34707
1.34707
1.34707
1.34707
1.34707
1.34707
1.34707
1.34707
1.34707
1.34707
1.34707
1.34707
1.34707
1.34707
1.34707
1.34707
1.34707
1.34707
1.34706
1.347
1.3469
1.34596
1.34495
1.3291
1.32602
1
1.32602
1
1.04017
1.08473
1.11989
1.14301
1.15539
1.15973
1.15877
1.15476
1.1493
1.14345
1.13781
1.13272
1.12832
1.12461
1.12157
1.11911
1.11717
1.11565
1.11449
1.11361
1.11297
1.11251
1.1122
1.112
1.11188
1.11183
1.11182
1.11185
1.11191
1.11198
1.11206
1.11215
1.11224
1.11234
1.11244
1.11254
1.11264
1.11275
1.11284
1.11293
1.11302
1.11309
1.11315
1.1132
1.11324
1.11328
1.1133
1.11332
1.11333
1.11333
1.11334
1.11334
1.11334
1.11334
1.11334
1.11334
1.11334
1.11333
1.11333
1.11333
1.11333
1.11333
1.11333
1.11333
1.11333
1.11333
1.11333
1.11333
1.11333
1.11333
1.11333
1.11333
1.11333
1.11333
1.11333
1.11333
1.11333
1.11333
1.11333
1.11333
1.11333
1.11333
1.11333
1.11333
1.11333
1.11333
1.11333
1.11333
1.11333
1.11333
1.11333
1.11333
1.11332
1.11332
1.1132
1.11317
1.11168
1.10957
1.10222
1
1.10222
1
1.02373
1.02809
1.01223
0.983935
0.950688
0.917729
0.887957
0.86251
0.841467
0.824393
0.810677
0.799715
0.790973
0.784013
0.778481
0.774096
0.770634
0.767916
0.765798
0.764162
0.762916
0.761981
0.761294
0.760805
0.760471
0.760259
0.760142
0.760097
0.760109
0.760164
0.76025
0.760365
0.760503
0.760657
0.760821
0.760988
0.761153
0.761311
0.761458
0.76159
0.761707
0.761806
0.761888
0.761954
0.762006
0.762044
0.762072
0.762092
0.762104
0.762112
0.762116
0.762118
0.762118
0.762117
0.762116
0.762115
0.762113
0.762112
0.762111
0.76211
0.762109
0.762109
0.762108
0.762108
0.762108
0.762107
0.762107
0.762107
0.762107
0.762107
0.762107
0.762107
0.762107
0.762107
0.762107
0.762107
0.762107
0.762107
0.762107
0.762107
0.762106
0.762106
0.762106
0.762106
0.762106
0.762106
0.762106
0.762106
0.762106
0.762106
0.762107
0.762111
0.762116
0.762172
0.762248
0.763118
0.763927
0.777633
0.791968
1
0.791971
1
0.80718
0.659027
0.550101
0.474363
0.423321
0.389001
0.365438
0.348706
0.336385
0.327021
0.319735
0.313975
0.309379
0.305692
0.302731
0.300355
0.298453
0.296939
0.295741
0.294801
0.294071
0.293512
0.293091
0.292781
0.29256
0.292409
0.292314
0.292263
0.292247
0.292257
0.292291
0.292347
0.292416
0.292493
0.292575
0.292657
0.292739
0.292815
0.292886
0.29295
0.293006
0.293054
0.293093
0.293125
0.293149
0.293168
0.293182
0.293192
0.293198
0.293203
0.293205
0.293206
0.293206
0.293206
0.293206
0.293205
0.293205
0.293204
0.293204
0.293203
0.293203
0.293203
0.293202
0.293202
0.293202
0.293202
0.293202
0.293202
0.293202
0.293202
0.293202
0.293202
0.293202
0.293202
0.293201
0.293201
0.293201
0.293201
0.293201
0.293201
0.293201
0.293201
0.293201
0.293201
0.293201
0.293201
0.293201
0.293201
0.293201
0.293202
0.293203
0.293213
0.293234
0.293368
0.293688
0.295564
0.300333
0.327533
0.371018
1
0.371019
-1
-0.80718
-0.659027
-0.550101
-0.474363
-0.423321
-0.389001
-0.365438
-0.348706
-0.336385
-0.327021
-0.319735
-0.313975
-0.309379
-0.305692
-0.302731
-0.300355
-0.298453
-0.296939
-0.295741
-0.294801
-0.294071
-0.293512
-0.293091
-0.292781
-0.29256
-0.292409
-0.292315
-0.292264
-0.292247
-0.292257
-0.292292
-0.292348
-0.292417
-0.292494
-0.292576
-0.292659
-0.29274
-0.292817
-0.292888
-0.292952
-0.293008
-0.293055
-0.293095
-0.293126
-0.293151
-0.29317
-0.293184
-0.293193
-0.2932
-0.293204
-0.293206
-0.293207
-0.293208
-0.293208
-0.293207
-0.293207
-0.293206
-0.293206
-0.293205
-0.293205
-0.293204
-0.293204
-0.293204
-0.293204
-0.293203
-0.293203
-0.293203
-0.293203
-0.293203
-0.293203
-0.293203
-0.293203
-0.293203
-0.293203
-0.293203
-0.293203
-0.293203
-0.293203
-0.293203
-0.293203
-0.293203
-0.293203
-0.293203
-0.293203
-0.293203
-0.293203
-0.293203
-0.293203
-0.293203
-0.293203
-0.293205
-0.293214
-0.293235
-0.293369
-0.293689
-0.295566
-0.300335
-0.327534
-0.371019
-1
-0.371019
