# vtk DataFile Version 2.0
FlowField
ASCII
DATASET STRUCTURED_GRID
DIMENSIONS 102 13 1 
POINTS 1326 double
0 0 0
0.3 0 0
0.6 0 0
0.9 0 0
1.2 0 0
1.5 0 0
1.8 0 0
2.1 0 0
2.4 0 0
2.7 0 0
3 0 0
3.3 0 0
3.6 0 0
3.9 0 0
4.2 0 0
4.5 0 0
4.8 0 0
5.1 0 0
5.4 0 0
5.7 0 0
6 0 0
6.3 0 0
6.6 0 0
6.9 0 0
7.2 0 0
7.5 0 0
7.8 0 0
8.1 0 0
8.4 0 0
8.7 0 0
9 0 0
9.3 0 0
9.6 0 0
9.9 0 0
10.2 0 0
10.5 0 0
10.8 0 0
11.1 0 0
11.4 0 0
11.7 0 0
12 0 0
12.3 0 0
12.6 0 0
12.9 0 0
13.2 0 0
13.5 0 0
13.8 0 0
14.1 0 0
14.4 0 0
14.7 0 0
15 0 0
15.3 0 0
15.6 0 0
15.9 0 0
16.2 0 0
16.5 0 0
16.8 0 0
17.1 0 0
17.4 0 0
17.7 0 0
18 0 0
18.3 0 0
18.6 0 0
18.9 0 0
19.2 0 0
19.5 0 0
19.8 0 0
20.1 0 0
20.4 0 0
20.7 0 0
21 0 0
21.3 0 0
21.6 0 0
21.9 0 0
22.2 0 0
22.5 0 0
22.8 0 0
23.1 0 0
23.4 0 0
23.7 0 0
24 0 0
24.3 0 0
24.6 0 0
24.9 0 0
25.2 0 0
25.5 0 0
25.8 0 0
26.1 0 0
26.4 0 0
26.7 0 0
27 0 0
27.3 0 0
27.6 0 0
27.9 0 0
28.2 0 0
28.5 0 0
28.8 0 0
29.1 0 0
29.4 0 0
29.7 0 0
30 0 0
30.3 0 0
0 0.1 0
0.3 0.1 0
0.6 0.1 0
0.9 0.1 0
1.2 0.1 0
1.5 0.1 0
1.8 0.1 0
2.1 0.1 0
2.4 0.1 0
2.7 0.1 0
3 0.1 0
3.3 0.1 0
3.6 0.1 0
3.9 0.1 0
4.2 0.1 0
4.5 0.1 0
4.8 0.1 0
5.1 0.1 0
5.4 0.1 0
5.7 0.1 0
6 0.1 0
6.3 0.1 0
6.6 0.1 0
6.9 0.1 0
7.2 0.1 0
7.5 0.1 0
7.8 0.1 0
8.1 0.1 0
8.4 0.1 0
8.7 0.1 0
9 0.1 0
9.3 0.1 0
9.6 0.1 0
9.9 0.1 0
10.2 0.1 0
10.5 0.1 0
10.8 0.1 0
11.1 0.1 0
11.4 0.1 0
11.7 0.1 0
12 0.1 0
12.3 0.1 0
12.6 0.1 0
12.9 0.1 0
13.2 0.1 0
13.5 0.1 0
13.8 0.1 0
14.1 0.1 0
14.4 0.1 0
14.7 0.1 0
15 0.1 0
15.3 0.1 0
15.6 0.1 0
15.9 0.1 0
16.2 0.1 0
16.5 0.1 0
16.8 0.1 0
17.1 0.1 0
17.4 0.1 0
17.7 0.1 0
18 0.1 0
18.3 0.1 0
18.6 0.1 0
18.9 0.1 0
19.2 0.1 0
19.5 0.1 0
19.8 0.1 0
20.1 0.1 0
20.4 0.1 0
20.7 0.1 0
21 0.1 0
21.3 0.1 0
21.6 0.1 0
21.9 0.1 0
22.2 0.1 0
22.5 0.1 0
22.8 0.1 0
23.1 0.1 0
23.4 0.1 0
23.7 0.1 0
24 0.1 0
24.3 0.1 0
24.6 0.1 0
24.9 0.1 0
25.2 0.1 0
25.5 0.1 0
25.8 0.1 0
26.1 0.1 0
26.4 0.1 0
26.7 0.1 0
27 0.1 0
27.3 0.1 0
27.6 0.1 0
27.9 0.1 0
28.2 0.1 0
28.5 0.1 0
28.8 0.1 0
29.1 0.1 0
29.4 0.1 0
29.7 0.1 0
30 0.1 0
30.3 0.1 0
0 0.2 0
0.3 0.2 0
0.6 0.2 0
0.9 0.2 0
1.2 0.2 0
1.5 0.2 0
1.8 0.2 0
2.1 0.2 0
2.4 0.2 0
2.7 0.2 0
3 0.2 0
3.3 0.2 0
3.6 0.2 0
3.9 0.2 0
4.2 0.2 0
4.5 0.2 0
4.8 0.2 0
5.1 0.2 0
5.4 0.2 0
5.7 0.2 0
6 0.2 0
6.3 0.2 0
6.6 0.2 0
6.9 0.2 0
7.2 0.2 0
7.5 0.2 0
7.8 0.2 0
8.1 0.2 0
8.4 0.2 0
8.7 0.2 0
9 0.2 0
9.3 0.2 0
9.6 0.2 0
9.9 0.2 0
10.2 0.2 0
10.5 0.2 0
10.8 0.2 0
11.1 0.2 0
11.4 0.2 0
11.7 0.2 0
12 0.2 0
12.3 0.2 0
12.6 0.2 0
12.9 0.2 0
13.2 0.2 0
13.5 0.2 0
13.8 0.2 0
14.1 0.2 0
14.4 0.2 0
14.7 0.2 0
15 0.2 0
15.3 0.2 0
15.6 0.2 0
15.9 0.2 0
16.2 0.2 0
16.5 0.2 0
16.8 0.2 0
17.1 0.2 0
17.4 0.2 0
17.7 0.2 0
18 0.2 0
18.3 0.2 0
18.6 0.2 0
18.9 0.2 0
19.2 0.2 0
19.5 0.2 0
19.8 0.2 0
20.1 0.2 0
20.4 0.2 0
20.7 0.2 0
21 0.2 0
21.3 0.2 0
21.6 0.2 0
21.9 0.2 0
22.2 0.2 0
22.5 0.2 0
22.8 0.2 0
23.1 0.2 0
23.4 0.2 0
23.7 0.2 0
24 0.2 0
24.3 0.2 0
24.6 0.2 0
24.9 0.2 0
25.2 0.2 0
25.5 0.2 0
25.8 0.2 0
26.1 0.2 0
26.4 0.2 0
26.7 0.2 0
27 0.2 0
27.3 0.2 0
27.6 0.2 0
27.9 0.2 0
28.2 0.2 0
28.5 0.2 0
28.8 0.2 0
29.1 0.2 0
29.4 0.2 0
29.7 0.2 0
30 0.2 0
30.3 0.2 0
0 0.3 0
0.3 0.3 0
0.6 0.3 0
0.9 0.3 0
1.2 0.3 0
1.5 0.3 0
1.8 0.3 0
2.1 0.3 0
2.4 0.3 0
2.7 0.3 0
3 0.3 0
3.3 0.3 0
3.6 0.3 0
3.9 0.3 0
4.2 0.3 0
4.5 0.3 0
4.8 0.3 0
5.1 0.3 0
5.4 0.3 0
5.7 0.3 0
6 0.3 0
6.3 0.3 0
6.6 0.3 0
6.9 0.3 0
7.2 0.3 0
7.5 0.3 0
7.8 0.3 0
8.1 0.3 0
8.4 0.3 0
8.7 0.3 0
9 0.3 0
9.3 0.3 0
9.6 0.3 0
9.9 0.3 0
10.2 0.3 0
10.5 0.3 0
10.8 0.3 0
11.1 0.3 0
11.4 0.3 0
11.7 0.3 0
12 0.3 0
12.3 0.3 0
12.6 0.3 0
12.9 0.3 0
13.2 0.3 0
13.5 0.3 0
13.8 0.3 0
14.1 0.3 0
14.4 0.3 0
14.7 0.3 0
15 0.3 0
15.3 0.3 0
15.6 0.3 0
15.9 0.3 0
16.2 0.3 0
16.5 0.3 0
16.8 0.3 0
17.1 0.3 0
17.4 0.3 0
17.7 0.3 0
18 0.3 0
18.3 0.3 0
18.6 0.3 0
18.9 0.3 0
19.2 0.3 0
19.5 0.3 0
19.8 0.3 0
20.1 0.3 0
20.4 0.3 0
20.7 0.3 0
21 0.3 0
21.3 0.3 0
21.6 0.3 0
21.9 0.3 0
22.2 0.3 0
22.5 0.3 0
22.8 0.3 0
23.1 0.3 0
23.4 0.3 0
23.7 0.3 0
24 0.3 0
24.3 0.3 0
24.6 0.3 0
24.9 0.3 0
25.2 0.3 0
25.5 0.3 0
25.8 0.3 0
26.1 0.3 0
26.4 0.3 0
26.7 0.3 0
27 0.3 0
27.3 0.3 0
27.6 0.3 0
27.9 0.3 0
28.2 0.3 0
28.5 0.3 0
28.8 0.3 0
29.1 0.3 0
29.4 0.3 0
29.7 0.3 0
30 0.3 0
30.3 0.3 0
0 0.4 0
0.3 0.4 0
0.6 0.4 0
0.9 0.4 0
1.2 0.4 0
1.5 0.4 0
1.8 0.4 0
2.1 0.4 0
2.4 0.4 0
2.7 0.4 0
3 0.4 0
3.3 0.4 0
3.6 0.4 0
3.9 0.4 0
4.2 0.4 0
4.5 0.4 0
4.8 0.4 0
5.1 0.4 0
5.4 0.4 0
5.7 0.4 0
6 0.4 0
6.3 0.4 0
6.6 0.4 0
6.9 0.4 0
7.2 0.4 0
7.5 0.4 0
7.8 0.4 0
8.1 0.4 0
8.4 0.4 0
8.7 0.4 0
9 0.4 0
9.3 0.4 0
9.6 0.4 0
9.9 0.4 0
10.2 0.4 0
10.5 0.4 0
10.8 0.4 0
11.1 0.4 0
11.4 0.4 0
11.7 0.4 0
12 0.4 0
12.3 0.4 0
12.6 0.4 0
12.9 0.4 0
13.2 0.4 0
13.5 0.4 0
13.8 0.4 0
14.1 0.4 0
14.4 0.4 0
14.7 0.4 0
15 0.4 0
15.3 0.4 0
15.6 0.4 0
15.9 0.4 0
16.2 0.4 0
16.5 0.4 0
16.8 0.4 0
17.1 0.4 0
17.4 0.4 0
17.7 0.4 0
18 0.4 0
18.3 0.4 0
18.6 0.4 0
18.9 0.4 0
19.2 0.4 0
19.5 0.4 0
19.8 0.4 0
20.1 0.4 0
20.4 0.4 0
20.7 0.4 0
21 0.4 0
21.3 0.4 0
21.6 0.4 0
21.9 0.4 0
22.2 0.4 0
22.5 0.4 0
22.8 0.4 0
23.1 0.4 0
23.4 0.4 0
23.7 0.4 0
24 0.4 0
24.3 0.4 0
24.6 0.4 0
24.9 0.4 0
25.2 0.4 0
25.5 0.4 0
25.8 0.4 0
26.1 0.4 0
26.4 0.4 0
26.7 0.4 0
27 0.4 0
27.3 0.4 0
27.6 0.4 0
27.9 0.4 0
28.2 0.4 0
28.5 0.4 0
28.8 0.4 0
29.1 0.4 0
29.4 0.4 0
29.7 0.4 0
30 0.4 0
30.3 0.4 0
0 0.5 0
0.3 0.5 0
0.6 0.5 0
0.9 0.5 0
1.2 0.5 0
1.5 0.5 0
1.8 0.5 0
2.1 0.5 0
2.4 0.5 0
2.7 0.5 0
3 0.5 0
3.3 0.5 0
3.6 0.5 0
3.9 0.5 0
4.2 0.5 0
4.5 0.5 0
4.8 0.5 0
5.1 0.5 0
5.4 0.5 0
5.7 0.5 0
6 0.5 0
6.3 0.5 0
6.6 0.5 0
6.9 0.5 0
7.2 0.5 0
7.5 0.5 0
7.8 0.5 0
8.1 0.5 0
8.4 0.5 0
8.7 0.5 0
9 0.5 0
9.3 0.5 0
9.6 0.5 0
9.9 0.5 0
10.2 0.5 0
10.5 0.5 0
10.8 0.5 0
11.1 0.5 0
11.4 0.5 0
11.7 0.5 0
12 0.5 0
12.3 0.5 0
12.6 0.5 0
12.9 0.5 0
13.2 0.5 0
13.5 0.5 0
13.8 0.5 0
14.1 0.5 0
14.4 0.5 0
14.7 0.5 0
15 0.5 0
15.3 0.5 0
15.6 0.5 0
15.9 0.5 0
16.2 0.5 0
16.5 0.5 0
16.8 0.5 0
17.1 0.5 0
17.4 0.5 0
17.7 0.5 0
18 0.5 0
18.3 0.5 0
18.6 0.5 0
18.9 0.5 0
19.2 0.5 0
19.5 0.5 0
19.8 0.5 0
20.1 0.5 0
20.4 0.5 0
20.7 0.5 0
21 0.5 0
21.3 0.5 0
21.6 0.5 0
21.9 0.5 0
22.2 0.5 0
22.5 0.5 0
22.8 0.5 0
23.1 0.5 0
23.4 0.5 0
23.7 0.5 0
24 0.5 0
24.3 0.5 0
24.6 0.5 0
24.9 0.5 0
25.2 0.5 0
25.5 0.5 0
25.8 0.5 0
26.1 0.5 0
26.4 0.5 0
26.7 0.5 0
27 0.5 0
27.3 0.5 0
27.6 0.5 0
27.9 0.5 0
28.2 0.5 0
28.5 0.5 0
28.8 0.5 0
29.1 0.5 0
29.4 0.5 0
29.7 0.5 0
30 0.5 0
30.3 0.5 0
0 0.6 0
0.3 0.6 0
0.6 0.6 0
0.9 0.6 0
1.2 0.6 0
1.5 0.6 0
1.8 0.6 0
2.1 0.6 0
2.4 0.6 0
2.7 0.6 0
3 0.6 0
3.3 0.6 0
3.6 0.6 0
3.9 0.6 0
4.2 0.6 0
4.5 0.6 0
4.8 0.6 0
5.1 0.6 0
5.4 0.6 0
5.7 0.6 0
6 0.6 0
6.3 0.6 0
6.6 0.6 0
6.9 0.6 0
7.2 0.6 0
7.5 0.6 0
7.8 0.6 0
8.1 0.6 0
8.4 0.6 0
8.7 0.6 0
9 0.6 0
9.3 0.6 0
9.6 0.6 0
9.9 0.6 0
10.2 0.6 0
10.5 0.6 0
10.8 0.6 0
11.1 0.6 0
11.4 0.6 0
11.7 0.6 0
12 0.6 0
12.3 0.6 0
12.6 0.6 0
12.9 0.6 0
13.2 0.6 0
13.5 0.6 0
13.8 0.6 0
14.1 0.6 0
14.4 0.6 0
14.7 0.6 0
15 0.6 0
15.3 0.6 0
15.6 0.6 0
15.9 0.6 0
16.2 0.6 0
16.5 0.6 0
16.8 0.6 0
17.1 0.6 0
17.4 0.6 0
17.7 0.6 0
18 0.6 0
18.3 0.6 0
18.6 0.6 0
18.9 0.6 0
19.2 0.6 0
19.5 0.6 0
19.8 0.6 0
20.1 0.6 0
20.4 0.6 0
20.7 0.6 0
21 0.6 0
21.3 0.6 0
21.6 0.6 0
21.9 0.6 0
22.2 0.6 0
22.5 0.6 0
22.8 0.6 0
23.1 0.6 0
23.4 0.6 0
23.7 0.6 0
24 0.6 0
24.3 0.6 0
24.6 0.6 0
24.9 0.6 0
25.2 0.6 0
25.5 0.6 0
25.8 0.6 0
26.1 0.6 0
26.4 0.6 0
26.7 0.6 0
27 0.6 0
27.3 0.6 0
27.6 0.6 0
27.9 0.6 0
28.2 0.6 0
28.5 0.6 0
28.8 0.6 0
29.1 0.6 0
29.4 0.6 0
29.7 0.6 0
30 0.6 0
30.3 0.6 0
0 0.7 0
0.3 0.7 0
0.6 0.7 0
0.9 0.7 0
1.2 0.7 0
1.5 0.7 0
1.8 0.7 0
2.1 0.7 0
2.4 0.7 0
2.7 0.7 0
3 0.7 0
3.3 0.7 0
3.6 0.7 0
3.9 0.7 0
4.2 0.7 0
4.5 0.7 0
4.8 0.7 0
5.1 0.7 0
5.4 0.7 0
5.7 0.7 0
6 0.7 0
6.3 0.7 0
6.6 0.7 0
6.9 0.7 0
7.2 0.7 0
7.5 0.7 0
7.8 0.7 0
8.1 0.7 0
8.4 0.7 0
8.7 0.7 0
9 0.7 0
9.3 0.7 0
9.6 0.7 0
9.9 0.7 0
10.2 0.7 0
10.5 0.7 0
10.8 0.7 0
11.1 0.7 0
11.4 0.7 0
11.7 0.7 0
12 0.7 0
12.3 0.7 0
12.6 0.7 0
12.9 0.7 0
13.2 0.7 0
13.5 0.7 0
13.8 0.7 0
14.1 0.7 0
14.4 0.7 0
14.7 0.7 0
15 0.7 0
15.3 0.7 0
15.6 0.7 0
15.9 0.7 0
16.2 0.7 0
16.5 0.7 0
16.8 0.7 0
17.1 0.7 0
17.4 0.7 0
17.7 0.7 0
18 0.7 0
18.3 0.7 0
18.6 0.7 0
18.9 0.7 0
19.2 0.7 0
19.5 0.7 0
19.8 0.7 0
20.1 0.7 0
20.4 0.7 0
20.7 0.7 0
21 0.7 0
21.3 0.7 0
21.6 0.7 0
21.9 0.7 0
22.2 0.7 0
22.5 0.7 0
22.8 0.7 0
23.1 0.7 0
23.4 0.7 0
23.7 0.7 0
24 0.7 0
24.3 0.7 0
24.6 0.7 0
24.9 0.7 0
25.2 0.7 0
25.5 0.7 0
25.8 0.7 0
26.1 0.7 0
26.4 0.7 0
26.7 0.7 0
27 0.7 0
27.3 0.7 0
27.6 0.7 0
27.9 0.7 0
28.2 0.7 0
28.5 0.7 0
28.8 0.7 0
29.1 0.7 0
29.4 0.7 0
29.7 0.7 0
30 0.7 0
30.3 0.7 0
0 0.8 0
0.3 0.8 0
0.6 0.8 0
0.9 0.8 0
1.2 0.8 0
1.5 0.8 0
1.8 0.8 0
2.1 0.8 0
2.4 0.8 0
2.7 0.8 0
3 0.8 0
3.3 0.8 0
3.6 0.8 0
3.9 0.8 0
4.2 0.8 0
4.5 0.8 0
4.8 0.8 0
5.1 0.8 0
5.4 0.8 0
5.7 0.8 0
6 0.8 0
6.3 0.8 0
6.6 0.8 0
6.9 0.8 0
7.2 0.8 0
7.5 0.8 0
7.8 0.8 0
8.1 0.8 0
8.4 0.8 0
8.7 0.8 0
9 0.8 0
9.3 0.8 0
9.6 0.8 0
9.9 0.8 0
10.2 0.8 0
10.5 0.8 0
10.8 0.8 0
11.1 0.8 0
11.4 0.8 0
11.7 0.8 0
12 0.8 0
12.3 0.8 0
12.6 0.8 0
12.9 0.8 0
13.2 0.8 0
13.5 0.8 0
13.8 0.8 0
14.1 0.8 0
14.4 0.8 0
14.7 0.8 0
15 0.8 0
15.3 0.8 0
15.6 0.8 0
15.9 0.8 0
16.2 0.8 0
16.5 0.8 0
16.8 0.8 0
17.1 0.8 0
17.4 0.8 0
17.7 0.8 0
18 0.8 0
18.3 0.8 0
18.6 0.8 0
18.9 0.8 0
19.2 0.8 0
19.5 0.8 0
19.8 0.8 0
20.1 0.8 0
20.4 0.8 0
20.7 0.8 0
21 0.8 0
21.3 0.8 0
21.6 0.8 0
21.9 0.8 0
22.2 0.8 0
22.5 0.8 0
22.8 0.8 0
23.1 0.8 0
23.4 0.8 0
23.7 0.8 0
24 0.8 0
24.3 0.8 0
24.6 0.8 0
24.9 0.8 0
25.2 0.8 0
25.5 0.8 0
25.8 0.8 0
26.1 0.8 0
26.4 0.8 0
26.7 0.8 0
27 0.8 0
27.3 0.8 0
27.6 0.8 0
27.9 0.8 0
28.2 0.8 0
28.5 0.8 0
28.8 0.8 0
29.1 0.8 0
29.4 0.8 0
29.7 0.8 0
30 0.8 0
30.3 0.8 0
0 0.9 0
0.3 0.9 0
0.6 0.9 0
0.9 0.9 0
1.2 0.9 0
1.5 0.9 0
1.8 0.9 0
2.1 0.9 0
2.4 0.9 0
2.7 0.9 0
3 0.9 0
3.3 0.9 0
3.6 0.9 0
3.9 0.9 0
4.2 0.9 0
4.5 0.9 0
4.8 0.9 0
5.1 0.9 0
5.4 0.9 0
5.7 0.9 0
6 0.9 0
6.3 0.9 0
6.6 0.9 0
6.9 0.9 0
7.2 0.9 0
7.5 0.9 0
7.8 0.9 0
8.1 0.9 0
8.4 0.9 0
8.7 0.9 0
9 0.9 0
9.3 0.9 0
9.6 0.9 0
9.9 0.9 0
10.2 0.9 0
10.5 0.9 0
10.8 0.9 0
11.1 0.9 0
11.4 0.9 0
11.7 0.9 0
12 0.9 0
12.3 0.9 0
12.6 0.9 0
12.9 0.9 0
13.2 0.9 0
13.5 0.9 0
13.8 0.9 0
14.1 0.9 0
14.4 0.9 0
14.7 0.9 0
15 0.9 0
15.3 0.9 0
15.6 0.9 0
15.9 0.9 0
16.2 0.9 0
16.5 0.9 0
16.8 0.9 0
17.1 0.9 0
17.4 0.9 0
17.7 0.9 0
18 0.9 0
18.3 0.9 0
18.6 0.9 0
18.9 0.9 0
19.2 0.9 0
19.5 0.9 0
19.8 0.9 0
20.1 0.9 0
20.4 0.9 0
20.7 0.9 0
21 0.9 0
21.3 0.9 0
21.6 0.9 0
21.9 0.9 0
22.2 0.9 0
22.5 0.9 0
22.8 0.9 0
23.1 0.9 0
23.4 0.9 0
23.7 0.9 0
24 0.9 0
24.3 0.9 0
24.6 0.9 0
24.9 0.9 0
25.2 0.9 0
25.5 0.9 0
25.8 0.9 0
26.1 0.9 0
26.4 0.9 0
26.7 0.9 0
27 0.9 0
27.3 0.9 0
27.6 0.9 0
27.9 0.9 0
28.2 0.9 0
28.5 0.9 0
28.8 0.9 0
29.1 0.9 0
29.4 0.9 0
29.7 0.9 0
30 0.9 0
30.3 0.9 0
0 1 0
0.3 1 0
0.6 1 0
0.9 1 0
1.2 1 0
1.5 1 0
1.8 1 0
2.1 1 0
2.4 1 0
2.7 1 0
3 1 0
3.3 1 0
3.6 1 0
3.9 1 0
4.2 1 0
4.5 1 0
4.8 1 0
5.1 1 0
5.4 1 0
5.7 1 0
6 1 0
6.3 1 0
6.6 1 0
6.9 1 0
7.2 1 0
7.5 1 0
7.8 1 0
8.1 1 0
8.4 1 0
8.7 1 0
9 1 0
9.3 1 0
9.6 1 0
9.9 1 0
10.2 1 0
10.5 1 0
10.8 1 0
11.1 1 0
11.4 1 0
11.7 1 0
12 1 0
12.3 1 0
12.6 1 0
12.9 1 0
13.2 1 0
13.5 1 0
13.8 1 0
14.1 1 0
14.4 1 0
14.7 1 0
15 1 0
15.3 1 0
15.6 1 0
15.9 1 0
16.2 1 0
16.5 1 0
16.8 1 0
17.1 1 0
17.4 1 0
17.7 1 0
18 1 0
18.3 1 0
18.6 1 0
18.9 1 0
19.2 1 0
19.5 1 0
19.8 1 0
20.1 1 0
20.4 1 0
20.7 1 0
21 1 0
21.3 1 0
21.6 1 0
21.9 1 0
22.2 1 0
22.5 1 0
22.8 1 0
23.1 1 0
23.4 1 0
23.7 1 0
24 1 0
24.3 1 0
24.6 1 0
24.9 1 0
25.2 1 0
25.5 1 0
25.8 1 0
26.1 1 0
26.4 1 0
26.7 1 0
27 1 0
27.3 1 0
27.6 1 0
27.9 1 0
28.2 1 0
28.5 1 0
28.8 1 0
29.1 1 0
29.4 1 0
29.7 1 0
30 1 0
30.3 1 0
0 1.1 0
0.3 1.1 0
0.6 1.1 0
0.9 1.1 0
1.2 1.1 0
1.5 1.1 0
1.8 1.1 0
2.1 1.1 0
2.4 1.1 0
2.7 1.1 0
3 1.1 0
3.3 1.1 0
3.6 1.1 0
3.9 1.1 0
4.2 1.1 0
4.5 1.1 0
4.8 1.1 0
5.1 1.1 0
5.4 1.1 0
5.7 1.1 0
6 1.1 0
6.3 1.1 0
6.6 1.1 0
6.9 1.1 0
7.2 1.1 0
7.5 1.1 0
7.8 1.1 0
8.1 1.1 0
8.4 1.1 0
8.7 1.1 0
9 1.1 0
9.3 1.1 0
9.6 1.1 0
9.9 1.1 0
10.2 1.1 0
10.5 1.1 0
10.8 1.1 0
11.1 1.1 0
11.4 1.1 0
11.7 1.1 0
12 1.1 0
12.3 1.1 0
12.6 1.1 0
12.9 1.1 0
13.2 1.1 0
13.5 1.1 0
13.8 1.1 0
14.1 1.1 0
14.4 1.1 0
14.7 1.1 0
15 1.1 0
15.3 1.1 0
15.6 1.1 0
15.9 1.1 0
16.2 1.1 0
16.5 1.1 0
16.8 1.1 0
17.1 1.1 0
17.4 1.1 0
17.7 1.1 0
18 1.1 0
18.3 1.1 0
18.6 1.1 0
18.9 1.1 0
19.2 1.1 0
19.5 1.1 0
19.8 1.1 0
20.1 1.1 0
20.4 1.1 0
20.7 1.1 0
21 1.1 0
21.3 1.1 0
21.6 1.1 0
21.9 1.1 0
22.2 1.1 0
22.5 1.1 0
22.8 1.1 0
23.1 1.1 0
23.4 1.1 0
23.7 1.1 0
24 1.1 0
24.3 1.1 0
24.6 1.1 0
24.9 1.1 0
25.2 1.1 0
25.5 1.1 0
25.8 1.1 0
26.1 1.1 0
26.4 1.1 0
26.7 1.1 0
27 1.1 0
27.3 1.1 0
27.6 1.1 0
27.9 1.1 0
28.2 1.1 0
28.5 1.1 0
28.8 1.1 0
29.1 1.1 0
29.4 1.1 0
29.7 1.1 0
30 1.1 0
30.3 1.1 0
0 1.2 0
0.3 1.2 0
0.6 1.2 0
0.9 1.2 0
1.2 1.2 0
1.5 1.2 0
1.8 1.2 0
2.1 1.2 0
2.4 1.2 0
2.7 1.2 0
3 1.2 0
3.3 1.2 0
3.6 1.2 0
3.9 1.2 0
4.2 1.2 0
4.5 1.2 0
4.8 1.2 0
5.1 1.2 0
5.4 1.2 0
5.7 1.2 0
6 1.2 0
6.3 1.2 0
6.6 1.2 0
6.9 1.2 0
7.2 1.2 0
7.5 1.2 0
7.8 1.2 0
8.1 1.2 0
8.4 1.2 0
8.7 1.2 0
9 1.2 0
9.3 1.2 0
9.6 1.2 0
9.9 1.2 0
10.2 1.2 0
10.5 1.2 0
10.8 1.2 0
11.1 1.2 0
11.4 1.2 0
11.7 1.2 0
12 1.2 0
12.3 1.2 0
12.6 1.2 0
12.9 1.2 0
13.2 1.2 0
13.5 1.2 0
13.8 1.2 0
14.1 1.2 0
14.4 1.2 0
14.7 1.2 0
15 1.2 0
15.3 1.2 0
15.6 1.2 0
15.9 1.2 0
16.2 1.2 0
16.5 1.2 0
16.8 1.2 0
17.1 1.2 0
17.4 1.2 0
17.7 1.2 0
18 1.2 0
18.3 1.2 0
18.6 1.2 0
18.9 1.2 0
19.2 1.2 0
19.5 1.2 0
19.8 1.2 0
20.1 1.2 0
20.4 1.2 0
20.7 1.2 0
21 1.2 0
21.3 1.2 0
21.6 1.2 0
21.9 1.2 0
22.2 1.2 0
22.5 1.2 0
22.8 1.2 0
23.1 1.2 0
23.4 1.2 0
23.7 1.2 0
24 1.2 0
24.3 1.2 0
24.6 1.2 0
24.9 1.2 0
25.2 1.2 0
25.5 1.2 0
25.8 1.2 0
26.1 1.2 0
26.4 1.2 0
26.7 1.2 0
27 1.2 0
27.3 1.2 0
27.6 1.2 0
27.9 1.2 0
28.2 1.2 0
28.5 1.2 0
28.8 1.2 0
29.1 1.2 0
29.4 1.2 0
29.7 1.2 0
30 1.2 0
30.3 1.2 0

POINT_DATA 1326

SCALARS v double
LOOKUP_TABLE default
0
0
0
0
0
0
0
0
0
0
0
0
0
0
0
0
0
0
0
0
0
0
0
0
0
0
0
0
0
0
0
0
0
0
0
0
0
0
0
0
0
0
0
0
0
0
0
0
0
0
0
0
0
0
0
0
0
0
0
0
0
0
0
0
0
0
0
0
0
0
0
0
0
0
0
0
0
0
0
0
0
0
0
0
0
0
0
0
0
0
0
0
0
0
0
0
0
0
0
0
0
0
-0.0370799
0.0370799
0.0391132
0.0336313
0.0272525
0.0213215
0.0162805
0.0122494
0.00917274
0.00690401
0.00526865
0.00410324
0.00327336
0.00267716
0.0022416
0.00191618
0.00166663
0.00147001
0.00131106
0.00117957
0.00106863
0.000973477
0.000890781
0.000818131
0.000753758
0.000696338
0.000644813
0.000598331
0.000556225
0.000517955
0.00048305
0.000451103
0.000421786
0.000394824
0.000369963
0.000346983
0.00032571
0.000305979
0.000287638
0.000270565
0.000254661
0.000239819
0.000225942
0.000212962
0.000200811
0.000189422
0.000178735
0.000168702
0.000159276
0.000150413
0.000142077
0.000134231
0.000126841
0.000119877
0.000113314
0.000107126
0.00010129
9.5783e-05
9.05857e-05
8.56824e-05
8.1056e-05
7.66894e-05
7.25697e-05
6.86826e-05
6.50119e-05
6.15457e-05
5.82717e-05
5.51716e-05
5.22286e-05
4.94288e-05
4.67563e-05
4.41937e-05
4.17253e-05
3.93367e-05
3.70144e-05
3.47483e-05
3.25313e-05
3.03567e-05
2.82212e-05
2.61269e-05
2.40782e-05
2.20796e-05
2.01369e-05
1.82596e-05
1.64582e-05
1.47411e-05
1.3116e-05
1.1591e-05
1.01727e-05
8.86352e-06
7.6659e-06
6.58171e-06
5.60992e-06
4.7444e-06
3.98347e-06
3.31233e-06
2.73936e-06
2.23588e-06
1.62346e-06
1.53567e-06
-5.94088e-07
-5.94088e-07
-0.0282544
0.0282544
0.038741
0.0375699
0.0331777
0.0280244
0.0230971
0.0188234
0.0153293
0.0125738
0.0104408
0.00879738
0.0075236
0.00652314
0.00572374
0.00507309
0.00453394
0.00407989
0.00369217
0.00335721
0.00306498
0.00280793
0.00258029
0.0023775
0.00219593
0.00203265
0.0018852
0.00175155
0.00163001
0.00151916
0.00141776
0.00132474
0.00123922
0.00116041
0.00108763
0.00102028
0.000957851
0.000899884
0.000845967
0.000795754
0.000748935
0.000705216
0.000664346
0.000626106
0.000590294
0.000556722
0.000525225
0.000495654
0.000467873
0.000441756
0.000417191
0.000394073
0.000372305
0.000351799
0.000332476
0.00031426
0.000297084
0.000280883
0.000265599
0.00025118
0.000237576
0.000224738
0.000212624
0.000201188
0.000190387
0.00018018
0.000170524
0.000161369
0.000152669
0.00014438
0.000136452
0.000128838
0.000121496
0.000114385
0.000107469
0.000100723
9.41247e-05
8.76621e-05
8.13307e-05
7.51363e-05
6.90907e-05
6.32099e-05
5.75148e-05
5.20316e-05
4.67866e-05
4.18037e-05
3.71056e-05
3.27123e-05
2.86384e-05
2.48922e-05
2.14786e-05
1.8397e-05
1.56409e-05
1.31952e-05
1.10503e-05
9.17118e-06
7.57232e-06
6.11839e-06
4.77713e-06
3.38657e-06
-1.81493e-06
-1.81493e-06
-0.0177597
0.0177597
0.0281239
0.029097
0.0269195
0.0237
0.0203368
0.0172613
0.0146483
0.0125199
0.0108215
0.00947161
0.00839007
0.00751003
0.00678035
0.00616369
0.0056334
0.00517062
0.00476198
0.00439774
0.00407069
0.00377534
0.00350739
0.00326337
0.00304045
0.00283625
0.00264874
0.00247618
0.00231707
0.0021701
0.0020341
0.00190805
0.00179107
0.00168234
0.00158114
0.00148685
0.0013989
0.00131676
0.00123999
0.00116816
0.0011009
0.00103787
0.000978758
0.000923284
0.000871191
0.000822241
0.000776221
0.000732934
0.000692197
0.000653844
0.000617722
0.000583686
0.000551605
0.000521356
0.000492828
0.000465916
0.000440523
0.000416557
0.000393936
0.000372585
0.000352429
0.0003334
0.000315435
0.000298468
0.000282438
0.000267283
0.00025294
0.00023934
0.000226419
0.00021411
0.000202345
0.000191056
0.000180182
0.000169663
0.00015945
0.000149501
0.000139785
0.00013028
0.000120977
0.000111882
0.000103007
9.43717e-05
8.60057e-05
7.79438e-05
7.02211e-05
6.2872e-05
5.59299e-05
4.94232e-05
4.33739e-05
3.7797e-05
3.27009e-05
2.80858e-05
2.39437e-05
2.02576e-05
1.70126e-05
1.41652e-05
1.17269e-05
9.50859e-06
7.59789e-06
4.98089e-06
-2.65515e-06
-2.65515e-06
-0.00966192
0.00966192
0.0165163
0.017616
0.016649
0.0149526
0.0130935
0.0113491
0.00984096
0.00859619
0.00759145
0.00678378
0.00612854
0.00558762
0.00513166
0.00473918
0.00439499
0.00408849
0.00381232
0.00356119
0.0033313
0.0031198
0.00292449
0.00274362
0.00257573
0.00241962
0.00227424
0.00213866
0.0020121
0.00189384
0.00178323
0.00167967
0.00158267
0.00149174
0.00140643
0.00132636
0.00125116
0.0011805
0.00111408
0.00105161
0.000992828
0.000937498
0.000885398
0.000836327
0.000790089
0.000746508
0.000705421
0.000666675
0.000630128
0.000595646
0.000563108
0.000532395
0.0005034
0.000476023
0.000450169
0.000425751
0.000402686
0.000380896
0.000360312
0.000340866
0.000322495
0.000305139
0.000288741
0.000273245
0.000258597
0.000244743
0.000231627
0.000219188
0.000207372
0.000196119
0.000185369
0.000175065
0.000165149
0.000155571
0.000146285
0.000137252
0.000128442
0.000119833
0.000111416
0.00010319
9.51632e-05
8.73507e-05
7.97758e-05
7.24669e-05
6.54529e-05
5.87643e-05
5.243e-05
4.64757e-05
4.09222e-05
3.57847e-05
3.10726e-05
2.67879e-05
2.29258e-05
1.94747e-05
1.64216e-05
1.37337e-05
1.14142e-05
9.31284e-06
7.50618e-06
4.92434e-06
-2.37489e-06
-2.37489e-06
-0.00306438
0.00306438
0.0054217
0.0058522
0.00557283
0.00504137
0.00444938
0.0038898
0.00340389
0.00300172
0.00267645
0.00241446
0.00220131
0.0020246
0.00187479
0.00174488
0.00162994
0.00152661
0.00143256
0.00134615
0.00126624
0.00119198
0.00112274
0.00105802
0.000997418
0.000940589
0.000887238
0.000837114
0.000789996
0.000745673
0.000703953
0.000664672
0.000627678
0.000592824
0.00055997
0.000529
0.0004998
0.000472258
0.000446275
0.000421764
0.000398632
0.000376797
0.000356187
0.000336731
0.000318359
0.000301009
0.000284624
0.000269147
0.000254526
0.000240713
0.000227662
0.000215329
0.000203674
0.000192659
0.000182248
0.000172409
0.000163107
0.000154313
0.000146002
0.000138147
0.000130721
0.000123703
0.000117069
0.000110798
0.000104868
9.9259e-05
9.39464e-05
8.89077e-05
8.41214e-05
7.95641e-05
7.52114e-05
7.10401e-05
6.70287e-05
6.31561e-05
5.94036e-05
5.57562e-05
5.2201e-05
4.87287e-05
4.53349e-05
4.20196e-05
3.87847e-05
3.56349e-05
3.25801e-05
2.96307e-05
2.67977e-05
2.40933e-05
2.15286e-05
1.91142e-05
1.68587e-05
1.4768e-05
1.28466e-05
1.10959e-05
9.51417e-06
8.09762e-06
6.84116e-06
5.7333e-06
4.77368e-06
3.90658e-06
3.15954e-06
2.07585e-06
-9.47648e-07
-9.47648e-07
0.00306441
-0.00306441
-0.00542174
-0.00585226
-0.00557289
-0.00504143
-0.00444944
-0.00388984
-0.00340392
-0.00300177
-0.0026765
-0.00241448
-0.00220133
-0.00202465
-0.00187482
-0.00174489
-0.00162997
-0.00152664
-0.00143257
-0.00134617
-0.00126626
-0.001192
-0.00112276
-0.00105804
-0.000997433
-0.000940602
-0.000887256
-0.000837135
-0.000790011
-0.000745683
-0.000703969
-0.000664692
-0.000627693
-0.000592835
-0.000559987
-0.000529018
-0.000499814
-0.000472273
-0.000446293
-0.000421778
-0.000398646
-0.000376815
-0.000356205
-0.000336747
-0.000318376
-0.000301027
-0.000284641
-0.000269164
-0.000254544
-0.000240731
-0.00022768
-0.000215347
-0.000203692
-0.000192678
-0.000182266
-0.000172424
-0.000163122
-0.000154329
-0.000146016
-0.000138158
-0.000130731
-0.00012371
-0.000117074
-0.0001108
-0.000104867
-9.92525e-05
-9.39356e-05
-8.88936e-05
-8.41028e-05
-7.954e-05
-7.51828e-05
-7.10079e-05
-6.69925e-05
-6.31168e-05
-5.93625e-05
-5.57132e-05
-5.21571e-05
-4.86862e-05
-4.52949e-05
-4.19815e-05
-3.87496e-05
-3.56053e-05
-3.25559e-05
-2.96121e-05
-2.67856e-05
-2.40876e-05
-2.153e-05
-1.91224e-05
-1.68735e-05
-1.47899e-05
-1.28749e-05
-1.11298e-05
-9.55321e-06
-8.14119e-06
-6.8883e-06
-5.78208e-06
-4.82193e-06
-3.95298e-06
-3.19844e-06
-2.10649e-06
9.55766e-07
9.55766e-07
0.00966196
-0.00966196
-0.0165164
-0.017616
-0.016649
-0.0149526
-0.0130935
-0.0113491
-0.00984099
-0.00859624
-0.0075915
-0.0067838
-0.00612856
-0.00558766
-0.00513169
-0.0047392
-0.00439501
-0.00408853
-0.00381234
-0.00356121
-0.00333132
-0.00311982
-0.00292451
-0.00274364
-0.00257575
-0.00241964
-0.00227425
-0.00213868
-0.00201212
-0.00189386
-0.00178324
-0.00167969
-0.00158269
-0.00149175
-0.00140645
-0.00132638
-0.00125118
-0.00118052
-0.0011141
-0.00105162
-0.000992844
-0.000937516
-0.000885418
-0.000836345
-0.000790107
-0.000746527
-0.00070544
-0.000666695
-0.000630148
-0.000595667
-0.000563127
-0.000532414
-0.00050342
-0.000476043
-0.000450189
-0.000425769
-0.000402704
-0.000380914
-0.000360328
-0.00034088
-0.000322508
-0.00030515
-0.000288749
-0.000273251
-0.000258601
-0.000244742
-0.000231621
-0.00021918
-0.00020736
-0.000196102
-0.000185349
-0.00017504
-0.000165121
-0.000155541
-0.000146253
-0.000137218
-0.000128406
-0.000119799
-0.000111383
-0.000103159
-9.51342e-05
-8.73259e-05
-7.97556e-05
-7.24514e-05
-6.54425e-05
-5.87592e-05
-5.24307e-05
-4.64817e-05
-4.0934e-05
-3.58027e-05
-3.10959e-05
-2.68157e-05
-2.2958e-05
-1.95111e-05
-1.64611e-05
-1.37745e-05
-1.14545e-05
-9.35171e-06
-7.53779e-06
-4.94779e-06
2.38244e-06
2.38244e-06
0.0177597
-0.0177597
-0.0281239
-0.029097
-0.0269196
-0.0237001
-0.0203368
-0.0172614
-0.0146483
-0.01252
-0.0108216
-0.00947164
-0.00839008
-0.00751006
-0.00678039
-0.00616371
-0.00563341
-0.00517065
-0.004762
-0.00439777
-0.00407072
-0.00377536
-0.0035074
-0.00326339
-0.00304047
-0.00283627
-0.00264876
-0.0024762
-0.00231709
-0.00217012
-0.00203412
-0.00190808
-0.00179109
-0.00168235
-0.00158116
-0.00148687
-0.00139892
-0.00131678
-0.00124001
-0.00116818
-0.00110092
-0.00103789
-0.000978781
-0.000923306
-0.000871212
-0.000822263
-0.000776243
-0.000732956
-0.00069222
-0.000653868
-0.000617744
-0.000583708
-0.000551627
-0.000521379
-0.000492851
-0.000465938
-0.000440544
-0.000416578
-0.000393956
-0.000372604
-0.000352447
-0.000333417
-0.000315449
-0.000298481
-0.000282449
-0.000267291
-0.000252944
-0.000239342
-0.000226418
-0.000214106
-0.000202338
-0.000191046
-0.000180169
-0.000169648
-0.000159434
-0.000149483
-0.000139765
-0.00013026
-0.000120959
-0.000111864
-0.000102989
-9.4356e-05
-8.59932e-05
-7.79343e-05
-7.02143e-05
-6.28687e-05
-5.59302e-05
-4.94266e-05
-4.33811e-05
-3.78085e-05
-3.27162e-05
-2.81039e-05
-2.39644e-05
-2.02815e-05
-1.70386e-05
-1.41924e-05
-1.17536e-05
-9.53355e-06
-7.61727e-06
-4.99355e-06
2.66325e-06
2.66325e-06
0.0282545
-0.0282545
-0.0387411
-0.0375699
-0.0331777
-0.0280244
-0.0230972
-0.0188234
-0.0153293
-0.0125738
-0.0104408
-0.00879741
-0.00752361
-0.00652317
-0.00572378
-0.00507312
-0.00453395
-0.00407991
-0.0036922
-0.00335724
-0.003065
-0.00280795
-0.00258031
-0.00237753
-0.00219596
-0.00203267
-0.00188521
-0.00175157
-0.00163004
-0.00151918
-0.00141778
-0.00132477
-0.00123925
-0.00116044
-0.00108765
-0.00102031
-0.000957874
-0.000899905
-0.000845993
-0.000795781
-0.000748957
-0.000705238
-0.000664372
-0.000626133
-0.000590319
-0.000556746
-0.00052525
-0.000495679
-0.000467899
-0.000441783
-0.000417217
-0.000394098
-0.00037233
-0.000351825
-0.000332502
-0.000314286
-0.000297109
-0.000280908
-0.000265624
-0.000251205
-0.0002376
-0.000224761
-0.000212645
-0.000201208
-0.000190408
-0.000180199
-0.00017054
-0.000161383
-0.000152683
-0.000144391
-0.000136461
-0.000128846
-0.000121501
-0.000114389
-0.000107472
-0.000100724
-9.41238e-05
-8.76605e-05
-8.13292e-05
-7.51343e-05
-6.90877e-05
-6.32064e-05
-5.75122e-05
-5.20301e-05
-4.67851e-05
-4.18029e-05
-3.71058e-05
-3.27131e-05
-2.86402e-05
-2.48958e-05
-2.14842e-05
-1.84035e-05
-1.56478e-05
-1.32034e-05
-1.106e-05
-9.18138e-06
-7.58205e-06
-6.12663e-06
-4.78205e-06
-3.38653e-06
1.82431e-06
1.82431e-06
0.0370799
-0.0370799
-0.0391133
-0.0336313
-0.0272525
-0.0213215
-0.0162806
-0.0122495
-0.00917275
-0.00690402
-0.00526869
-0.00410328
-0.00327338
-0.00267718
-0.00224164
-0.00191621
-0.00166664
-0.00147002
-0.00131109
-0.00117961
-0.00106866
-0.000973499
-0.000890801
-0.000818158
-0.000753793
-0.000696366
-0.000644831
-0.000598353
-0.000556256
-0.000517985
-0.000483073
-0.000451126
-0.000421814
-0.000394852
-0.000369989
-0.000347011
-0.000325737
-0.000306003
-0.000287664
-0.000270596
-0.000254688
-0.000239842
-0.000225969
-0.000212992
-0.000200839
-0.000189448
-0.000178762
-0.00016873
-0.000159305
-0.000150442
-0.000142105
-0.000134258
-0.000126869
-0.000119906
-0.000113343
-0.000107155
-0.000101318
-9.58109e-05
-9.06145e-05
-8.57115e-05
-8.10845e-05
-7.67178e-05
-7.25978e-05
-6.87102e-05
-6.50404e-05
-6.15747e-05
-5.82987e-05
-5.51973e-05
-5.22547e-05
-4.9455e-05
-4.67814e-05
-4.42174e-05
-4.17479e-05
-3.93583e-05
-3.7035e-05
-3.47675e-05
-3.25485e-05
-3.0372e-05
-2.82356e-05
-2.61401e-05
-2.4089e-05
-2.20877e-05
-2.01437e-05
-1.82655e-05
-1.6462e-05
-1.4743e-05
-1.31165e-05
-1.15901e-05
-1.01701e-05
-8.86022e-06
-7.6628e-06
-6.57812e-06
-5.6051e-06
-4.73886e-06
-3.97836e-06
-3.30775e-06
-2.73402e-06
-2.22997e-06
-1.61687e-06
-1.52564e-06
6.04207e-07
6.04207e-07
0
0
0
0
0
0
0
0
0
0
0
0
0
0
0
0
0
0
0
0
0
0
0
0
0
0
0
0
0
0
0
0
0
0
0
0
0
0
0
0
0
0
0
0
0
0
0
0
0
0
0
0
0
0
0
0
0
0
0
0
0
0
0
0
0
0
0
0
0
0
0
0
0
0
0
0
0
0
0
0
0
0
0
0
0
0
0
0
0
0
0
0
0
0
0
0
0
0
0
0
0
0
0
0
0
0
0
0
0
0
0
0
0
0
0
0
0
0
0
0
0
0
0
0
0
0
0
0
0
0
0
0
0
0
0
0
0
0
0
0
0
0
0
0
0
0
0
0
0
0
0
0
0
0
0
0
0
0
0
0
0
0
0
0
0
0
0
0
0
0
0
0
0
0
0
0
0
0
0
0
0
0
0
0
0
0
0
0
0
0
0
0
0
0
0
0
0
0
0
0
0
0
0
0
