# vtk DataFile Version 2.0
FlowField
ASCII
DATASET STRUCTURED_GRID
DIMENSIONS 102 13 1 
POINTS 1326 double
0 0 0
0.3 0 0
0.6 0 0
0.9 0 0
1.2 0 0
1.5 0 0
1.8 0 0
2.1 0 0
2.4 0 0
2.7 0 0
3 0 0
3.3 0 0
3.6 0 0
3.9 0 0
4.2 0 0
4.5 0 0
4.8 0 0
5.1 0 0
5.4 0 0
5.7 0 0
6 0 0
6.3 0 0
6.6 0 0
6.9 0 0
7.2 0 0
7.5 0 0
7.8 0 0
8.1 0 0
8.4 0 0
8.7 0 0
9 0 0
9.3 0 0
9.6 0 0
9.9 0 0
10.2 0 0
10.5 0 0
10.8 0 0
11.1 0 0
11.4 0 0
11.7 0 0
12 0 0
12.3 0 0
12.6 0 0
12.9 0 0
13.2 0 0
13.5 0 0
13.8 0 0
14.1 0 0
14.4 0 0
14.7 0 0
15 0 0
15.3 0 0
15.6 0 0
15.9 0 0
16.2 0 0
16.5 0 0
16.8 0 0
17.1 0 0
17.4 0 0
17.7 0 0
18 0 0
18.3 0 0
18.6 0 0
18.9 0 0
19.2 0 0
19.5 0 0
19.8 0 0
20.1 0 0
20.4 0 0
20.7 0 0
21 0 0
21.3 0 0
21.6 0 0
21.9 0 0
22.2 0 0
22.5 0 0
22.8 0 0
23.1 0 0
23.4 0 0
23.7 0 0
24 0 0
24.3 0 0
24.6 0 0
24.9 0 0
25.2 0 0
25.5 0 0
25.8 0 0
26.1 0 0
26.4 0 0
26.7 0 0
27 0 0
27.3 0 0
27.6 0 0
27.9 0 0
28.2 0 0
28.5 0 0
28.8 0 0
29.1 0 0
29.4 0 0
29.7 0 0
30 0 0
30.3 0 0
0 0.1 0
0.3 0.1 0
0.6 0.1 0
0.9 0.1 0
1.2 0.1 0
1.5 0.1 0
1.8 0.1 0
2.1 0.1 0
2.4 0.1 0
2.7 0.1 0
3 0.1 0
3.3 0.1 0
3.6 0.1 0
3.9 0.1 0
4.2 0.1 0
4.5 0.1 0
4.8 0.1 0
5.1 0.1 0
5.4 0.1 0
5.7 0.1 0
6 0.1 0
6.3 0.1 0
6.6 0.1 0
6.9 0.1 0
7.2 0.1 0
7.5 0.1 0
7.8 0.1 0
8.1 0.1 0
8.4 0.1 0
8.7 0.1 0
9 0.1 0
9.3 0.1 0
9.6 0.1 0
9.9 0.1 0
10.2 0.1 0
10.5 0.1 0
10.8 0.1 0
11.1 0.1 0
11.4 0.1 0
11.7 0.1 0
12 0.1 0
12.3 0.1 0
12.6 0.1 0
12.9 0.1 0
13.2 0.1 0
13.5 0.1 0
13.8 0.1 0
14.1 0.1 0
14.4 0.1 0
14.7 0.1 0
15 0.1 0
15.3 0.1 0
15.6 0.1 0
15.9 0.1 0
16.2 0.1 0
16.5 0.1 0
16.8 0.1 0
17.1 0.1 0
17.4 0.1 0
17.7 0.1 0
18 0.1 0
18.3 0.1 0
18.6 0.1 0
18.9 0.1 0
19.2 0.1 0
19.5 0.1 0
19.8 0.1 0
20.1 0.1 0
20.4 0.1 0
20.7 0.1 0
21 0.1 0
21.3 0.1 0
21.6 0.1 0
21.9 0.1 0
22.2 0.1 0
22.5 0.1 0
22.8 0.1 0
23.1 0.1 0
23.4 0.1 0
23.7 0.1 0
24 0.1 0
24.3 0.1 0
24.6 0.1 0
24.9 0.1 0
25.2 0.1 0
25.5 0.1 0
25.8 0.1 0
26.1 0.1 0
26.4 0.1 0
26.7 0.1 0
27 0.1 0
27.3 0.1 0
27.6 0.1 0
27.9 0.1 0
28.2 0.1 0
28.5 0.1 0
28.8 0.1 0
29.1 0.1 0
29.4 0.1 0
29.7 0.1 0
30 0.1 0
30.3 0.1 0
0 0.2 0
0.3 0.2 0
0.6 0.2 0
0.9 0.2 0
1.2 0.2 0
1.5 0.2 0
1.8 0.2 0
2.1 0.2 0
2.4 0.2 0
2.7 0.2 0
3 0.2 0
3.3 0.2 0
3.6 0.2 0
3.9 0.2 0
4.2 0.2 0
4.5 0.2 0
4.8 0.2 0
5.1 0.2 0
5.4 0.2 0
5.7 0.2 0
6 0.2 0
6.3 0.2 0
6.6 0.2 0
6.9 0.2 0
7.2 0.2 0
7.5 0.2 0
7.8 0.2 0
8.1 0.2 0
8.4 0.2 0
8.7 0.2 0
9 0.2 0
9.3 0.2 0
9.6 0.2 0
9.9 0.2 0
10.2 0.2 0
10.5 0.2 0
10.8 0.2 0
11.1 0.2 0
11.4 0.2 0
11.7 0.2 0
12 0.2 0
12.3 0.2 0
12.6 0.2 0
12.9 0.2 0
13.2 0.2 0
13.5 0.2 0
13.8 0.2 0
14.1 0.2 0
14.4 0.2 0
14.7 0.2 0
15 0.2 0
15.3 0.2 0
15.6 0.2 0
15.9 0.2 0
16.2 0.2 0
16.5 0.2 0
16.8 0.2 0
17.1 0.2 0
17.4 0.2 0
17.7 0.2 0
18 0.2 0
18.3 0.2 0
18.6 0.2 0
18.9 0.2 0
19.2 0.2 0
19.5 0.2 0
19.8 0.2 0
20.1 0.2 0
20.4 0.2 0
20.7 0.2 0
21 0.2 0
21.3 0.2 0
21.6 0.2 0
21.9 0.2 0
22.2 0.2 0
22.5 0.2 0
22.8 0.2 0
23.1 0.2 0
23.4 0.2 0
23.7 0.2 0
24 0.2 0
24.3 0.2 0
24.6 0.2 0
24.9 0.2 0
25.2 0.2 0
25.5 0.2 0
25.8 0.2 0
26.1 0.2 0
26.4 0.2 0
26.7 0.2 0
27 0.2 0
27.3 0.2 0
27.6 0.2 0
27.9 0.2 0
28.2 0.2 0
28.5 0.2 0
28.8 0.2 0
29.1 0.2 0
29.4 0.2 0
29.7 0.2 0
30 0.2 0
30.3 0.2 0
0 0.3 0
0.3 0.3 0
0.6 0.3 0
0.9 0.3 0
1.2 0.3 0
1.5 0.3 0
1.8 0.3 0
2.1 0.3 0
2.4 0.3 0
2.7 0.3 0
3 0.3 0
3.3 0.3 0
3.6 0.3 0
3.9 0.3 0
4.2 0.3 0
4.5 0.3 0
4.8 0.3 0
5.1 0.3 0
5.4 0.3 0
5.7 0.3 0
6 0.3 0
6.3 0.3 0
6.6 0.3 0
6.9 0.3 0
7.2 0.3 0
7.5 0.3 0
7.8 0.3 0
8.1 0.3 0
8.4 0.3 0
8.7 0.3 0
9 0.3 0
9.3 0.3 0
9.6 0.3 0
9.9 0.3 0
10.2 0.3 0
10.5 0.3 0
10.8 0.3 0
11.1 0.3 0
11.4 0.3 0
11.7 0.3 0
12 0.3 0
12.3 0.3 0
12.6 0.3 0
12.9 0.3 0
13.2 0.3 0
13.5 0.3 0
13.8 0.3 0
14.1 0.3 0
14.4 0.3 0
14.7 0.3 0
15 0.3 0
15.3 0.3 0
15.6 0.3 0
15.9 0.3 0
16.2 0.3 0
16.5 0.3 0
16.8 0.3 0
17.1 0.3 0
17.4 0.3 0
17.7 0.3 0
18 0.3 0
18.3 0.3 0
18.6 0.3 0
18.9 0.3 0
19.2 0.3 0
19.5 0.3 0
19.8 0.3 0
20.1 0.3 0
20.4 0.3 0
20.7 0.3 0
21 0.3 0
21.3 0.3 0
21.6 0.3 0
21.9 0.3 0
22.2 0.3 0
22.5 0.3 0
22.8 0.3 0
23.1 0.3 0
23.4 0.3 0
23.7 0.3 0
24 0.3 0
24.3 0.3 0
24.6 0.3 0
24.9 0.3 0
25.2 0.3 0
25.5 0.3 0
25.8 0.3 0
26.1 0.3 0
26.4 0.3 0
26.7 0.3 0
27 0.3 0
27.3 0.3 0
27.6 0.3 0
27.9 0.3 0
28.2 0.3 0
28.5 0.3 0
28.8 0.3 0
29.1 0.3 0
29.4 0.3 0
29.7 0.3 0
30 0.3 0
30.3 0.3 0
0 0.4 0
0.3 0.4 0
0.6 0.4 0
0.9 0.4 0
1.2 0.4 0
1.5 0.4 0
1.8 0.4 0
2.1 0.4 0
2.4 0.4 0
2.7 0.4 0
3 0.4 0
3.3 0.4 0
3.6 0.4 0
3.9 0.4 0
4.2 0.4 0
4.5 0.4 0
4.8 0.4 0
5.1 0.4 0
5.4 0.4 0
5.7 0.4 0
6 0.4 0
6.3 0.4 0
6.6 0.4 0
6.9 0.4 0
7.2 0.4 0
7.5 0.4 0
7.8 0.4 0
8.1 0.4 0
8.4 0.4 0
8.7 0.4 0
9 0.4 0
9.3 0.4 0
9.6 0.4 0
9.9 0.4 0
10.2 0.4 0
10.5 0.4 0
10.8 0.4 0
11.1 0.4 0
11.4 0.4 0
11.7 0.4 0
12 0.4 0
12.3 0.4 0
12.6 0.4 0
12.9 0.4 0
13.2 0.4 0
13.5 0.4 0
13.8 0.4 0
14.1 0.4 0
14.4 0.4 0
14.7 0.4 0
15 0.4 0
15.3 0.4 0
15.6 0.4 0
15.9 0.4 0
16.2 0.4 0
16.5 0.4 0
16.8 0.4 0
17.1 0.4 0
17.4 0.4 0
17.7 0.4 0
18 0.4 0
18.3 0.4 0
18.6 0.4 0
18.9 0.4 0
19.2 0.4 0
19.5 0.4 0
19.8 0.4 0
20.1 0.4 0
20.4 0.4 0
20.7 0.4 0
21 0.4 0
21.3 0.4 0
21.6 0.4 0
21.9 0.4 0
22.2 0.4 0
22.5 0.4 0
22.8 0.4 0
23.1 0.4 0
23.4 0.4 0
23.7 0.4 0
24 0.4 0
24.3 0.4 0
24.6 0.4 0
24.9 0.4 0
25.2 0.4 0
25.5 0.4 0
25.8 0.4 0
26.1 0.4 0
26.4 0.4 0
26.7 0.4 0
27 0.4 0
27.3 0.4 0
27.6 0.4 0
27.9 0.4 0
28.2 0.4 0
28.5 0.4 0
28.8 0.4 0
29.1 0.4 0
29.4 0.4 0
29.7 0.4 0
30 0.4 0
30.3 0.4 0
0 0.5 0
0.3 0.5 0
0.6 0.5 0
0.9 0.5 0
1.2 0.5 0
1.5 0.5 0
1.8 0.5 0
2.1 0.5 0
2.4 0.5 0
2.7 0.5 0
3 0.5 0
3.3 0.5 0
3.6 0.5 0
3.9 0.5 0
4.2 0.5 0
4.5 0.5 0
4.8 0.5 0
5.1 0.5 0
5.4 0.5 0
5.7 0.5 0
6 0.5 0
6.3 0.5 0
6.6 0.5 0
6.9 0.5 0
7.2 0.5 0
7.5 0.5 0
7.8 0.5 0
8.1 0.5 0
8.4 0.5 0
8.7 0.5 0
9 0.5 0
9.3 0.5 0
9.6 0.5 0
9.9 0.5 0
10.2 0.5 0
10.5 0.5 0
10.8 0.5 0
11.1 0.5 0
11.4 0.5 0
11.7 0.5 0
12 0.5 0
12.3 0.5 0
12.6 0.5 0
12.9 0.5 0
13.2 0.5 0
13.5 0.5 0
13.8 0.5 0
14.1 0.5 0
14.4 0.5 0
14.7 0.5 0
15 0.5 0
15.3 0.5 0
15.6 0.5 0
15.9 0.5 0
16.2 0.5 0
16.5 0.5 0
16.8 0.5 0
17.1 0.5 0
17.4 0.5 0
17.7 0.5 0
18 0.5 0
18.3 0.5 0
18.6 0.5 0
18.9 0.5 0
19.2 0.5 0
19.5 0.5 0
19.8 0.5 0
20.1 0.5 0
20.4 0.5 0
20.7 0.5 0
21 0.5 0
21.3 0.5 0
21.6 0.5 0
21.9 0.5 0
22.2 0.5 0
22.5 0.5 0
22.8 0.5 0
23.1 0.5 0
23.4 0.5 0
23.7 0.5 0
24 0.5 0
24.3 0.5 0
24.6 0.5 0
24.9 0.5 0
25.2 0.5 0
25.5 0.5 0
25.8 0.5 0
26.1 0.5 0
26.4 0.5 0
26.7 0.5 0
27 0.5 0
27.3 0.5 0
27.6 0.5 0
27.9 0.5 0
28.2 0.5 0
28.5 0.5 0
28.8 0.5 0
29.1 0.5 0
29.4 0.5 0
29.7 0.5 0
30 0.5 0
30.3 0.5 0
0 0.6 0
0.3 0.6 0
0.6 0.6 0
0.9 0.6 0
1.2 0.6 0
1.5 0.6 0
1.8 0.6 0
2.1 0.6 0
2.4 0.6 0
2.7 0.6 0
3 0.6 0
3.3 0.6 0
3.6 0.6 0
3.9 0.6 0
4.2 0.6 0
4.5 0.6 0
4.8 0.6 0
5.1 0.6 0
5.4 0.6 0
5.7 0.6 0
6 0.6 0
6.3 0.6 0
6.6 0.6 0
6.9 0.6 0
7.2 0.6 0
7.5 0.6 0
7.8 0.6 0
8.1 0.6 0
8.4 0.6 0
8.7 0.6 0
9 0.6 0
9.3 0.6 0
9.6 0.6 0
9.9 0.6 0
10.2 0.6 0
10.5 0.6 0
10.8 0.6 0
11.1 0.6 0
11.4 0.6 0
11.7 0.6 0
12 0.6 0
12.3 0.6 0
12.6 0.6 0
12.9 0.6 0
13.2 0.6 0
13.5 0.6 0
13.8 0.6 0
14.1 0.6 0
14.4 0.6 0
14.7 0.6 0
15 0.6 0
15.3 0.6 0
15.6 0.6 0
15.9 0.6 0
16.2 0.6 0
16.5 0.6 0
16.8 0.6 0
17.1 0.6 0
17.4 0.6 0
17.7 0.6 0
18 0.6 0
18.3 0.6 0
18.6 0.6 0
18.9 0.6 0
19.2 0.6 0
19.5 0.6 0
19.8 0.6 0
20.1 0.6 0
20.4 0.6 0
20.7 0.6 0
21 0.6 0
21.3 0.6 0
21.6 0.6 0
21.9 0.6 0
22.2 0.6 0
22.5 0.6 0
22.8 0.6 0
23.1 0.6 0
23.4 0.6 0
23.7 0.6 0
24 0.6 0
24.3 0.6 0
24.6 0.6 0
24.9 0.6 0
25.2 0.6 0
25.5 0.6 0
25.8 0.6 0
26.1 0.6 0
26.4 0.6 0
26.7 0.6 0
27 0.6 0
27.3 0.6 0
27.6 0.6 0
27.9 0.6 0
28.2 0.6 0
28.5 0.6 0
28.8 0.6 0
29.1 0.6 0
29.4 0.6 0
29.7 0.6 0
30 0.6 0
30.3 0.6 0
0 0.7 0
0.3 0.7 0
0.6 0.7 0
0.9 0.7 0
1.2 0.7 0
1.5 0.7 0
1.8 0.7 0
2.1 0.7 0
2.4 0.7 0
2.7 0.7 0
3 0.7 0
3.3 0.7 0
3.6 0.7 0
3.9 0.7 0
4.2 0.7 0
4.5 0.7 0
4.8 0.7 0
5.1 0.7 0
5.4 0.7 0
5.7 0.7 0
6 0.7 0
6.3 0.7 0
6.6 0.7 0
6.9 0.7 0
7.2 0.7 0
7.5 0.7 0
7.8 0.7 0
8.1 0.7 0
8.4 0.7 0
8.7 0.7 0
9 0.7 0
9.3 0.7 0
9.6 0.7 0
9.9 0.7 0
10.2 0.7 0
10.5 0.7 0
10.8 0.7 0
11.1 0.7 0
11.4 0.7 0
11.7 0.7 0
12 0.7 0
12.3 0.7 0
12.6 0.7 0
12.9 0.7 0
13.2 0.7 0
13.5 0.7 0
13.8 0.7 0
14.1 0.7 0
14.4 0.7 0
14.7 0.7 0
15 0.7 0
15.3 0.7 0
15.6 0.7 0
15.9 0.7 0
16.2 0.7 0
16.5 0.7 0
16.8 0.7 0
17.1 0.7 0
17.4 0.7 0
17.7 0.7 0
18 0.7 0
18.3 0.7 0
18.6 0.7 0
18.9 0.7 0
19.2 0.7 0
19.5 0.7 0
19.8 0.7 0
20.1 0.7 0
20.4 0.7 0
20.7 0.7 0
21 0.7 0
21.3 0.7 0
21.6 0.7 0
21.9 0.7 0
22.2 0.7 0
22.5 0.7 0
22.8 0.7 0
23.1 0.7 0
23.4 0.7 0
23.7 0.7 0
24 0.7 0
24.3 0.7 0
24.6 0.7 0
24.9 0.7 0
25.2 0.7 0
25.5 0.7 0
25.8 0.7 0
26.1 0.7 0
26.4 0.7 0
26.7 0.7 0
27 0.7 0
27.3 0.7 0
27.6 0.7 0
27.9 0.7 0
28.2 0.7 0
28.5 0.7 0
28.8 0.7 0
29.1 0.7 0
29.4 0.7 0
29.7 0.7 0
30 0.7 0
30.3 0.7 0
0 0.8 0
0.3 0.8 0
0.6 0.8 0
0.9 0.8 0
1.2 0.8 0
1.5 0.8 0
1.8 0.8 0
2.1 0.8 0
2.4 0.8 0
2.7 0.8 0
3 0.8 0
3.3 0.8 0
3.6 0.8 0
3.9 0.8 0
4.2 0.8 0
4.5 0.8 0
4.8 0.8 0
5.1 0.8 0
5.4 0.8 0
5.7 0.8 0
6 0.8 0
6.3 0.8 0
6.6 0.8 0
6.9 0.8 0
7.2 0.8 0
7.5 0.8 0
7.8 0.8 0
8.1 0.8 0
8.4 0.8 0
8.7 0.8 0
9 0.8 0
9.3 0.8 0
9.6 0.8 0
9.9 0.8 0
10.2 0.8 0
10.5 0.8 0
10.8 0.8 0
11.1 0.8 0
11.4 0.8 0
11.7 0.8 0
12 0.8 0
12.3 0.8 0
12.6 0.8 0
12.9 0.8 0
13.2 0.8 0
13.5 0.8 0
13.8 0.8 0
14.1 0.8 0
14.4 0.8 0
14.7 0.8 0
15 0.8 0
15.3 0.8 0
15.6 0.8 0
15.9 0.8 0
16.2 0.8 0
16.5 0.8 0
16.8 0.8 0
17.1 0.8 0
17.4 0.8 0
17.7 0.8 0
18 0.8 0
18.3 0.8 0
18.6 0.8 0
18.9 0.8 0
19.2 0.8 0
19.5 0.8 0
19.8 0.8 0
20.1 0.8 0
20.4 0.8 0
20.7 0.8 0
21 0.8 0
21.3 0.8 0
21.6 0.8 0
21.9 0.8 0
22.2 0.8 0
22.5 0.8 0
22.8 0.8 0
23.1 0.8 0
23.4 0.8 0
23.7 0.8 0
24 0.8 0
24.3 0.8 0
24.6 0.8 0
24.9 0.8 0
25.2 0.8 0
25.5 0.8 0
25.8 0.8 0
26.1 0.8 0
26.4 0.8 0
26.7 0.8 0
27 0.8 0
27.3 0.8 0
27.6 0.8 0
27.9 0.8 0
28.2 0.8 0
28.5 0.8 0
28.8 0.8 0
29.1 0.8 0
29.4 0.8 0
29.7 0.8 0
30 0.8 0
30.3 0.8 0
0 0.9 0
0.3 0.9 0
0.6 0.9 0
0.9 0.9 0
1.2 0.9 0
1.5 0.9 0
1.8 0.9 0
2.1 0.9 0
2.4 0.9 0
2.7 0.9 0
3 0.9 0
3.3 0.9 0
3.6 0.9 0
3.9 0.9 0
4.2 0.9 0
4.5 0.9 0
4.8 0.9 0
5.1 0.9 0
5.4 0.9 0
5.7 0.9 0
6 0.9 0
6.3 0.9 0
6.6 0.9 0
6.9 0.9 0
7.2 0.9 0
7.5 0.9 0
7.8 0.9 0
8.1 0.9 0
8.4 0.9 0
8.7 0.9 0
9 0.9 0
9.3 0.9 0
9.6 0.9 0
9.9 0.9 0
10.2 0.9 0
10.5 0.9 0
10.8 0.9 0
11.1 0.9 0
11.4 0.9 0
11.7 0.9 0
12 0.9 0
12.3 0.9 0
12.6 0.9 0
12.9 0.9 0
13.2 0.9 0
13.5 0.9 0
13.8 0.9 0
14.1 0.9 0
14.4 0.9 0
14.7 0.9 0
15 0.9 0
15.3 0.9 0
15.6 0.9 0
15.9 0.9 0
16.2 0.9 0
16.5 0.9 0
16.8 0.9 0
17.1 0.9 0
17.4 0.9 0
17.7 0.9 0
18 0.9 0
18.3 0.9 0
18.6 0.9 0
18.9 0.9 0
19.2 0.9 0
19.5 0.9 0
19.8 0.9 0
20.1 0.9 0
20.4 0.9 0
20.7 0.9 0
21 0.9 0
21.3 0.9 0
21.6 0.9 0
21.9 0.9 0
22.2 0.9 0
22.5 0.9 0
22.8 0.9 0
23.1 0.9 0
23.4 0.9 0
23.7 0.9 0
24 0.9 0
24.3 0.9 0
24.6 0.9 0
24.9 0.9 0
25.2 0.9 0
25.5 0.9 0
25.8 0.9 0
26.1 0.9 0
26.4 0.9 0
26.7 0.9 0
27 0.9 0
27.3 0.9 0
27.6 0.9 0
27.9 0.9 0
28.2 0.9 0
28.5 0.9 0
28.8 0.9 0
29.1 0.9 0
29.4 0.9 0
29.7 0.9 0
30 0.9 0
30.3 0.9 0
0 1 0
0.3 1 0
0.6 1 0
0.9 1 0
1.2 1 0
1.5 1 0
1.8 1 0
2.1 1 0
2.4 1 0
2.7 1 0
3 1 0
3.3 1 0
3.6 1 0
3.9 1 0
4.2 1 0
4.5 1 0
4.8 1 0
5.1 1 0
5.4 1 0
5.7 1 0
6 1 0
6.3 1 0
6.6 1 0
6.9 1 0
7.2 1 0
7.5 1 0
7.8 1 0
8.1 1 0
8.4 1 0
8.7 1 0
9 1 0
9.3 1 0
9.6 1 0
9.9 1 0
10.2 1 0
10.5 1 0
10.8 1 0
11.1 1 0
11.4 1 0
11.7 1 0
12 1 0
12.3 1 0
12.6 1 0
12.9 1 0
13.2 1 0
13.5 1 0
13.8 1 0
14.1 1 0
14.4 1 0
14.7 1 0
15 1 0
15.3 1 0
15.6 1 0
15.9 1 0
16.2 1 0
16.5 1 0
16.8 1 0
17.1 1 0
17.4 1 0
17.7 1 0
18 1 0
18.3 1 0
18.6 1 0
18.9 1 0
19.2 1 0
19.5 1 0
19.8 1 0
20.1 1 0
20.4 1 0
20.7 1 0
21 1 0
21.3 1 0
21.6 1 0
21.9 1 0
22.2 1 0
22.5 1 0
22.8 1 0
23.1 1 0
23.4 1 0
23.7 1 0
24 1 0
24.3 1 0
24.6 1 0
24.9 1 0
25.2 1 0
25.5 1 0
25.8 1 0
26.1 1 0
26.4 1 0
26.7 1 0
27 1 0
27.3 1 0
27.6 1 0
27.9 1 0
28.2 1 0
28.5 1 0
28.8 1 0
29.1 1 0
29.4 1 0
29.7 1 0
30 1 0
30.3 1 0
0 1.1 0
0.3 1.1 0
0.6 1.1 0
0.9 1.1 0
1.2 1.1 0
1.5 1.1 0
1.8 1.1 0
2.1 1.1 0
2.4 1.1 0
2.7 1.1 0
3 1.1 0
3.3 1.1 0
3.6 1.1 0
3.9 1.1 0
4.2 1.1 0
4.5 1.1 0
4.8 1.1 0
5.1 1.1 0
5.4 1.1 0
5.7 1.1 0
6 1.1 0
6.3 1.1 0
6.6 1.1 0
6.9 1.1 0
7.2 1.1 0
7.5 1.1 0
7.8 1.1 0
8.1 1.1 0
8.4 1.1 0
8.7 1.1 0
9 1.1 0
9.3 1.1 0
9.6 1.1 0
9.9 1.1 0
10.2 1.1 0
10.5 1.1 0
10.8 1.1 0
11.1 1.1 0
11.4 1.1 0
11.7 1.1 0
12 1.1 0
12.3 1.1 0
12.6 1.1 0
12.9 1.1 0
13.2 1.1 0
13.5 1.1 0
13.8 1.1 0
14.1 1.1 0
14.4 1.1 0
14.7 1.1 0
15 1.1 0
15.3 1.1 0
15.6 1.1 0
15.9 1.1 0
16.2 1.1 0
16.5 1.1 0
16.8 1.1 0
17.1 1.1 0
17.4 1.1 0
17.7 1.1 0
18 1.1 0
18.3 1.1 0
18.6 1.1 0
18.9 1.1 0
19.2 1.1 0
19.5 1.1 0
19.8 1.1 0
20.1 1.1 0
20.4 1.1 0
20.7 1.1 0
21 1.1 0
21.3 1.1 0
21.6 1.1 0
21.9 1.1 0
22.2 1.1 0
22.5 1.1 0
22.8 1.1 0
23.1 1.1 0
23.4 1.1 0
23.7 1.1 0
24 1.1 0
24.3 1.1 0
24.6 1.1 0
24.9 1.1 0
25.2 1.1 0
25.5 1.1 0
25.8 1.1 0
26.1 1.1 0
26.4 1.1 0
26.7 1.1 0
27 1.1 0
27.3 1.1 0
27.6 1.1 0
27.9 1.1 0
28.2 1.1 0
28.5 1.1 0
28.8 1.1 0
29.1 1.1 0
29.4 1.1 0
29.7 1.1 0
30 1.1 0
30.3 1.1 0
0 1.2 0
0.3 1.2 0
0.6 1.2 0
0.9 1.2 0
1.2 1.2 0
1.5 1.2 0
1.8 1.2 0
2.1 1.2 0
2.4 1.2 0
2.7 1.2 0
3 1.2 0
3.3 1.2 0
3.6 1.2 0
3.9 1.2 0
4.2 1.2 0
4.5 1.2 0
4.8 1.2 0
5.1 1.2 0
5.4 1.2 0
5.7 1.2 0
6 1.2 0
6.3 1.2 0
6.6 1.2 0
6.9 1.2 0
7.2 1.2 0
7.5 1.2 0
7.8 1.2 0
8.1 1.2 0
8.4 1.2 0
8.7 1.2 0
9 1.2 0
9.3 1.2 0
9.6 1.2 0
9.9 1.2 0
10.2 1.2 0
10.5 1.2 0
10.8 1.2 0
11.1 1.2 0
11.4 1.2 0
11.7 1.2 0
12 1.2 0
12.3 1.2 0
12.6 1.2 0
12.9 1.2 0
13.2 1.2 0
13.5 1.2 0
13.8 1.2 0
14.1 1.2 0
14.4 1.2 0
14.7 1.2 0
15 1.2 0
15.3 1.2 0
15.6 1.2 0
15.9 1.2 0
16.2 1.2 0
16.5 1.2 0
16.8 1.2 0
17.1 1.2 0
17.4 1.2 0
17.7 1.2 0
18 1.2 0
18.3 1.2 0
18.6 1.2 0
18.9 1.2 0
19.2 1.2 0
19.5 1.2 0
19.8 1.2 0
20.1 1.2 0
20.4 1.2 0
20.7 1.2 0
21 1.2 0
21.3 1.2 0
21.6 1.2 0
21.9 1.2 0
22.2 1.2 0
22.5 1.2 0
22.8 1.2 0
23.1 1.2 0
23.4 1.2 0
23.7 1.2 0
24 1.2 0
24.3 1.2 0
24.6 1.2 0
24.9 1.2 0
25.2 1.2 0
25.5 1.2 0
25.8 1.2 0
26.1 1.2 0
26.4 1.2 0
26.7 1.2 0
27 1.2 0
27.3 1.2 0
27.6 1.2 0
27.9 1.2 0
28.2 1.2 0
28.5 1.2 0
28.8 1.2 0
29.1 1.2 0
29.4 1.2 0
29.7 1.2 0
30 1.2 0
30.3 1.2 0

POINT_DATA 1326

SCALARS v double
LOOKUP_TABLE default
0
0
0
0
0
0
0
0
0
0
0
0
0
0
0
0
0
0
0
0
0
0
0
0
0
0
0
0
0
0
0
0
0
0
0
0
0
0
0
0
0
0
0
0
0
0
0
0
0
0
0
0
0
0
0
0
0
0
0
0
0
0
0
0
0
0
0
0
0
0
0
0
0
0
0
0
0
0
0
0
0
0
0
0
0
0
0
0
0
0
0
0
0
0
0
0
0
0
0
0
0
0
-0.0370799
0.0370799
0.0391133
0.0336313
0.0272525
0.0213215
0.0162805
0.0122495
0.00917272
0.00690397
0.0052687
0.00410331
0.00327334
0.00267712
0.00224166
0.00191622
0.0016666
0.00147001
0.00131109
0.00117959
0.00106864
0.000973494
0.000890791
0.00081814
0.000753777
0.000696356
0.00064482
0.000598336
0.000556244
0.000517978
0.000483056
0.000451106
0.000421808
0.000394846
0.000369969
0.000346993
0.000325729
0.000305993
0.000287648
0.000270581
0.000254676
0.000239829
0.000225956
0.000212978
0.000200825
0.000189435
0.000178749
0.000168716
0.00015929
0.000150428
0.000142092
0.000134245
0.000126855
0.000119893
0.000113331
0.000107143
0.000101307
9.57996e-05
9.06017e-05
8.56944e-05
8.10603e-05
7.66832e-05
7.2548e-05
6.86405e-05
6.49476e-05
6.14571e-05
5.81572e-05
5.50371e-05
5.20868e-05
4.92967e-05
4.66577e-05
4.41616e-05
4.18002e-05
3.95663e-05
3.74528e-05
3.5453e-05
3.35607e-05
3.17701e-05
3.00755e-05
2.84719e-05
2.69541e-05
2.55177e-05
2.41581e-05
2.28712e-05
2.16531e-05
2.05001e-05
1.94086e-05
1.83754e-05
1.73973e-05
1.64714e-05
1.55948e-05
1.47653e-05
1.39785e-05
1.32387e-05
1.25206e-05
1.18938e-05
1.11164e-05
1.08403e-05
8.93929e-06
9.73348e-06
-4.26677e-11
-4.26677e-11
-0.0282544
0.0282544
0.038741
0.0375699
0.0331777
0.0280244
0.0230972
0.0188234
0.0153293
0.0125738
0.0104409
0.00879742
0.00752356
0.00652314
0.00572381
0.0050731
0.00453391
0.0040799
0.0036922
0.00335722
0.00306498
0.00280795
0.0025803
0.00237751
0.00219595
0.00203266
0.0018852
0.00175155
0.00163003
0.00151918
0.00141776
0.00132475
0.00123924
0.00116043
0.00108763
0.00102029
0.000957869
0.000899894
0.000845977
0.00079577
0.000748947
0.000705227
0.000664361
0.000626121
0.000590306
0.000556735
0.000525238
0.000495667
0.000467886
0.00044177
0.000417205
0.000394087
0.00037232
0.000351816
0.000332494
0.000314279
0.000297101
0.000280897
0.000265607
0.000251175
0.00023755
0.000224684
0.000212532
0.000201052
0.000190206
0.000179956
0.000170268
0.000161111
0.000152453
0.000144268
0.000136528
0.000129208
0.000122285
0.000115736
0.000109542
0.000103682
9.81386e-05
9.28936e-05
8.79308e-05
8.3235e-05
7.87915e-05
7.45865e-05
7.06071e-05
6.68411e-05
6.32768e-05
5.99034e-05
5.67105e-05
5.36883e-05
5.08278e-05
4.81201e-05
4.5557e-05
4.31312e-05
4.08334e-05
3.86639e-05
3.65883e-05
3.46908e-05
3.26245e-05
3.13643e-05
2.71489e-05
2.87436e-05
2.15648e-10
2.15648e-10
-0.0177597
0.0177597
0.0281239
0.029097
0.0269195
0.0237001
0.0203368
0.0172614
0.0146483
0.01252
0.0108216
0.00947162
0.00839003
0.00751006
0.0067804
0.00616368
0.00563338
0.00517065
0.004762
0.00439774
0.0040707
0.00377535
0.00350739
0.00326338
0.00304046
0.00283626
0.00264874
0.00247619
0.00231709
0.00217011
0.0020341
0.00190807
0.00179108
0.00168234
0.00158114
0.00148686
0.00139891
0.00131677
0.00124
0.00116817
0.00110091
0.00103788
0.000978771
0.000923296
0.000871201
0.000822253
0.000776233
0.000732945
0.000692209
0.000653857
0.000617734
0.000583699
0.000551619
0.000521372
0.000492845
0.000465932
0.000440537
0.000416567
0.000393937
0.000372568
0.000352387
0.000333323
0.000315312
0.000298293
0.000282209
0.000267007
0.000252637
0.000239051
0.000226206
0.00021406
0.000202574
0.000191711
0.000181436
0.000171717
0.000162524
0.000153827
0.000145599
0.000137814
0.000130448
0.000123479
0.000116884
0.000110643
0.000104737
9.91484e-05
9.3859e-05
8.88529e-05
8.4115e-05
7.96306e-05
7.53861e-05
7.13686e-05
6.75658e-05
6.39665e-05
6.05584e-05
5.73368e-05
5.42682e-05
5.14229e-05
4.8459e-05
4.63681e-05
4.08443e-05
4.27736e-05
4.14216e-10
4.14216e-10
-0.00966197
0.00966197
0.0165163
0.017616
0.016649
0.0149526
0.0130935
0.0113491
0.00984095
0.00859623
0.00759149
0.00678377
0.00612853
0.00558767
0.00513169
0.00473917
0.00439499
0.00408852
0.00381232
0.00356119
0.00333131
0.00311981
0.0029245
0.00274362
0.00257574
0.00241963
0.00227424
0.00213867
0.00201211
0.00189384
0.00178322
0.00167969
0.00158268
0.00149173
0.00140643
0.00132637
0.00125117
0.00118051
0.00111409
0.00105162
0.000992835
0.000937507
0.000885409
0.000836335
0.000790098
0.000746518
0.000705431
0.000666685
0.000630138
0.000595657
0.000563118
0.000532406
0.000503412
0.000476036
0.000450183
0.000425764
0.000402697
0.000380904
0.000360312
0.000340852
0.000322459
0.000305075
0.000288641
0.000273104
0.000258414
0.000244523
0.000231388
0.000218966
0.000207217
0.000196105
0.000185594
0.000175651
0.000166245
0.000157346
0.000148927
0.000140962
0.000133425
0.000126294
0.000119546
0.000113161
0.000107118
0.000101399
9.59875e-05
9.08658e-05
8.60185e-05
8.14308e-05
7.70886e-05
7.29788e-05
6.90888e-05
6.54068e-05
6.19216e-05
5.86228e-05
5.54995e-05
5.25459e-05
4.97371e-05
4.71185e-05
4.44405e-05
4.24377e-05
3.76818e-05
3.92021e-05
4.25674e-10
4.25674e-10
-0.00306442
0.00306442
0.00542172
0.0058522
0.00557286
0.00504142
0.00444941
0.0038898
0.00340391
0.00300176
0.00267647
0.00241445
0.00220132
0.00202464
0.0018748
0.00174487
0.00162996
0.00152663
0.00143256
0.00134615
0.00126624
0.00119198
0.00112274
0.00105803
0.000997422
0.00094059
0.00088724
0.000837122
0.000790001
0.00074567
0.000703956
0.000664683
0.000627682
0.000592821
0.000559977
0.00052901
0.000499803
0.000472261
0.000446283
0.00042177
0.000398637
0.000376805
0.000356195
0.000336738
0.000318367
0.000301018
0.000284632
0.000269155
0.000254535
0.000240722
0.000227671
0.000215339
0.000203685
0.00019267
0.000182259
0.000172419
0.000163116
0.000154321
0.000146007
0.000138145
0.000130711
0.000123681
0.000117033
0.000110745
0.000104799
9.91741e-05
9.3854e-05
8.88215e-05
8.40608e-05
7.95572e-05
7.52965e-05
7.12656e-05
6.74518e-05
6.38433e-05
6.0429e-05
5.71983e-05
5.41413e-05
5.12485e-05
4.85111e-05
4.59206e-05
4.34691e-05
4.1149e-05
3.89533e-05
3.68753e-05
3.49085e-05
3.30471e-05
3.12853e-05
2.96178e-05
2.80395e-05
2.65455e-05
2.51314e-05
2.3793e-05
2.25258e-05
2.13271e-05
2.0188e-05
1.91231e-05
1.80441e-05
1.72107e-05
1.53461e-05
1.58548e-05
2.59454e-10
2.59454e-10
0.00306439
-0.00306439
-0.00542172
-0.00585224
-0.00557285
-0.00504139
-0.00444942
-0.00388983
-0.00340389
-0.00300174
-0.00267649
-0.00241448
-0.00220131
-0.00202462
-0.00187482
-0.00174489
-0.00162995
-0.00152663
-0.00143258
-0.00134616
-0.00126625
-0.001192
-0.00112276
-0.00105804
-0.000997431
-0.000940601
-0.000887252
-0.000837129
-0.00079001
-0.000745685
-0.000703963
-0.000664684
-0.000627694
-0.000592835
-0.000559979
-0.000529012
-0.000499812
-0.000472268
-0.000446286
-0.000421773
-0.00039864
-0.000376807
-0.000356198
-0.00033674
-0.000318368
-0.000301019
-0.000284633
-0.000269155
-0.000254535
-0.000240722
-0.00022767
-0.000215338
-0.000203683
-0.000192669
-0.000182258
-0.000172417
-0.000163114
-0.000154319
-0.000146004
-0.000138142
-0.000130708
-0.000123678
-0.00011703
-0.000110743
-0.000104796
-9.91713e-05
-9.3851e-05
-8.88184e-05
-8.40577e-05
-7.9554e-05
-7.52932e-05
-7.1262e-05
-6.74481e-05
-6.38394e-05
-6.04249e-05
-5.71939e-05
-5.41366e-05
-5.12435e-05
-4.85056e-05
-4.59147e-05
-4.34626e-05
-4.1142e-05
-3.89457e-05
-3.6867e-05
-3.48996e-05
-3.30374e-05
-3.12749e-05
-2.96066e-05
-2.80274e-05
-2.65327e-05
-2.51178e-05
-2.37786e-05
-2.25108e-05
-2.13116e-05
-2.01722e-05
-1.91073e-05
-1.80287e-05
-1.71961e-05
-1.53338e-05
-1.58445e-05
-1.11782e-11
-1.11782e-11
0.00966195
-0.00966195
-0.0165163
-0.017616
-0.016649
-0.0149526
-0.0130935
-0.0113491
-0.00984096
-0.00859622
-0.00759149
-0.00678378
-0.00612854
-0.00558765
-0.00513169
-0.00473919
-0.004395
-0.00408852
-0.00381234
-0.0035612
-0.00333132
-0.00311982
-0.00292451
-0.00274363
-0.00257575
-0.00241963
-0.00227425
-0.00213868
-0.00201212
-0.00189385
-0.00178323
-0.00167969
-0.00158269
-0.00149174
-0.00140644
-0.00132637
-0.00125117
-0.00118051
-0.00111409
-0.00105162
-0.000992837
-0.000937509
-0.00088541
-0.000836337
-0.000790098
-0.000746518
-0.000705431
-0.000666685
-0.000630138
-0.000595656
-0.000563117
-0.000532405
-0.000503411
-0.000476035
-0.000450181
-0.000425763
-0.000402696
-0.000380902
-0.00036031
-0.00034085
-0.000322457
-0.000305073
-0.000288638
-0.000273101
-0.000258411
-0.000244521
-0.000231386
-0.000218963
-0.000207215
-0.000196102
-0.000185591
-0.000175648
-0.000166242
-0.000157343
-0.000148924
-0.000140958
-0.000133421
-0.00012629
-0.000119541
-0.000113155
-0.000107112
-0.000101393
-9.5981e-05
-9.08587e-05
-8.60108e-05
-8.14225e-05
-7.70796e-05
-7.29691e-05
-6.90784e-05
-6.53957e-05
-6.19099e-05
-5.86105e-05
-5.54867e-05
-5.25326e-05
-4.97235e-05
-4.71049e-05
-4.44274e-05
-4.24254e-05
-3.76716e-05
-3.91936e-05
-2.61805e-10
-2.61805e-10
0.0177598
-0.0177598
-0.0281239
-0.029097
-0.0269195
-0.0237001
-0.0203368
-0.0172613
-0.0146483
-0.01252
-0.0108216
-0.00947161
-0.00839007
-0.00751006
-0.00678038
-0.0061637
-0.0056334
-0.00517064
-0.004762
-0.00439776
-0.00407071
-0.00377535
-0.0035074
-0.00326338
-0.00304046
-0.00283626
-0.00264875
-0.0024762
-0.00231709
-0.00217011
-0.00203411
-0.00190807
-0.00179108
-0.00168234
-0.00158115
-0.00148687
-0.00139891
-0.00131677
-0.00124
-0.00116817
-0.00110091
-0.00103788
-0.000978771
-0.000923297
-0.000871202
-0.000822252
-0.000776232
-0.000732945
-0.000692209
-0.000653856
-0.000617734
-0.000583698
-0.000551618
-0.000521371
-0.000492844
-0.000465931
-0.000440536
-0.000416565
-0.000393936
-0.000372567
-0.000352385
-0.000333321
-0.00031531
-0.000298291
-0.000282207
-0.000267005
-0.000252635
-0.000239049
-0.000226204
-0.000214058
-0.000202572
-0.000191709
-0.000181434
-0.000171715
-0.000162521
-0.000153824
-0.000145596
-0.000137811
-0.000130445
-0.000123475
-0.00011688
-0.000110639
-0.000104733
-9.91433e-05
-9.38535e-05
-8.8847e-05
-8.41085e-05
-7.96236e-05
-7.53786e-05
-7.13607e-05
-6.75574e-05
-6.39578e-05
-6.05493e-05
-5.73274e-05
-5.42586e-05
-5.14134e-05
-4.84499e-05
-4.63597e-05
-4.08375e-05
-4.27685e-05
-3.89738e-10
-3.89738e-10
0.0282545
-0.0282545
-0.038741
-0.0375699
-0.0331777
-0.0280244
-0.0230972
-0.0188234
-0.0153293
-0.0125738
-0.0104408
-0.0087974
-0.00752361
-0.00652316
-0.00572377
-0.0050731
-0.00453394
-0.0040799
-0.00369219
-0.00335723
-0.00306499
-0.00280794
-0.0025803
-0.00237752
-0.00219595
-0.00203266
-0.0018852
-0.00175156
-0.00163003
-0.00151917
-0.00141777
-0.00132476
-0.00123924
-0.00116042
-0.00108764
-0.0010203
-0.000957864
-0.000899894
-0.000845982
-0.000795771
-0.000748947
-0.000705227
-0.00066436
-0.000626121
-0.000590307
-0.000556734
-0.000525238
-0.000495667
-0.000467886
-0.00044177
-0.000417205
-0.000394086
-0.000372319
-0.000351815
-0.000332493
-0.000314278
-0.0002971
-0.000280896
-0.000265606
-0.000251174
-0.000237549
-0.000224683
-0.000212531
-0.000201052
-0.000190205
-0.000179955
-0.000170267
-0.00016111
-0.000152453
-0.000144267
-0.000136527
-0.000129207
-0.000122284
-0.000115735
-0.000109541
-0.000103681
-9.81372e-05
-9.2892e-05
-8.79291e-05
-8.32331e-05
-7.87894e-05
-7.45842e-05
-7.06046e-05
-6.68384e-05
-6.32739e-05
-5.99002e-05
-5.6707e-05
-5.36846e-05
-5.08238e-05
-4.81159e-05
-4.55526e-05
-4.31266e-05
-4.08286e-05
-3.8659e-05
-3.65834e-05
-3.46859e-05
-3.262e-05
-3.13603e-05
-2.71459e-05
-2.87421e-05
-3.37719e-10
-3.37719e-10
0.0370799
-0.0370799
-0.0391133
-0.0336313
-0.0272525
-0.0213215
-0.0162805
-0.0122495
-0.00917275
-0.006904
-0.00526866
-0.00410327
-0.00327338
-0.00267716
-0.00224162
-0.0019162
-0.00166664
-0.00147002
-0.00131108
-0.00117959
-0.00106865
-0.000973489
-0.00089079
-0.000818144
-0.00075378
-0.000696355
-0.00064482
-0.000598342
-0.000556243
-0.000517972
-0.000483062
-0.000451116
-0.0004218
-0.000394838
-0.000369977
-0.000346999
-0.000325724
-0.00030599
-0.000287651
-0.000270583
-0.000254676
-0.000239829
-0.000225956
-0.000212978
-0.000200826
-0.000189435
-0.000178749
-0.000168716
-0.00015929
-0.000150429
-0.000142092
-0.000134245
-0.000126855
-0.000119893
-0.000113331
-0.000107143
-0.000101307
-9.57996e-05
-9.06017e-05
-8.56944e-05
-8.10603e-05
-7.66831e-05
-7.25479e-05
-6.86405e-05
-6.49476e-05
-6.1457e-05
-5.81571e-05
-5.50371e-05
-5.20867e-05
-4.92966e-05
-4.66576e-05
-4.41614e-05
-4.18001e-05
-3.95662e-05
-3.74526e-05
-3.54528e-05
-3.35605e-05
-3.17698e-05
-3.00752e-05
-2.84715e-05
-2.69537e-05
-2.55172e-05
-2.41575e-05
-2.28706e-05
-2.16524e-05
-2.04993e-05
-1.94078e-05
-1.83745e-05
-1.73963e-05
-1.64704e-05
-1.55937e-05
-1.47642e-05
-1.39773e-05
-1.32375e-05
-1.25195e-05
-1.18927e-05
-1.11154e-05
-1.08396e-05
-8.93898e-06
-9.73404e-06
-1.86581e-10
-1.86581e-10
0
0
0
0
0
0
0
0
0
0
0
0
0
0
0
0
0
0
0
0
0
0
0
0
0
0
0
0
0
0
0
0
0
0
0
0
0
0
0
0
0
0
0
0
0
0
0
0
0
0
0
0
0
0
0
0
0
0
0
0
0
0
0
0
0
0
0
0
0
0
0
0
0
0
0
0
0
0
0
0
0
0
0
0
0
0
0
0
0
0
0
0
0
0
0
0
0
0
0
0
0
0
0
0
0
0
0
0
0
0
0
0
0
0
0
0
0
0
0
0
0
0
0
0
0
0
0
0
0
0
0
0
0
0
0
0
0
0
0
0
0
0
0
0
0
0
0
0
0
0
0
0
0
0
0
0
0
0
0
0
0
0
0
0
0
0
0
0
0
0
0
0
0
0
0
0
0
0
0
0
0
0
0
0
0
0
0
0
0
0
0
0
0
0
0
0
0
0
0
0
0
0
0
0
