# vtk DataFile Version 2.0
FlowField
ASCII
DATASET STRUCTURED_GRID
DIMENSIONS 402 1 22 
POINTS 8844 float
0 0 0
1 0 0
2 0 0
3 0 0
4 0 0
5 0 0
6 0 0
7 0 0
8 0 0
9 0 0
10 0 0
11 0 0
12 0 0
13 0 0
14 0 0
15 0 0
16 0 0
17 0 0
18 0 0
19 0 0
20 0 0
21 0 0
22 0 0
23 0 0
24 0 0
25 0 0
26 0 0
27 0 0
28 0 0
29 0 0
30 0 0
31 0 0
32 0 0
33 0 0
34 0 0
35 0 0
36 0 0
37 0 0
38 0 0
39 0 0
40 0 0
41 0 0
42 0 0
43 0 0
44 0 0
45 0 0
46 0 0
47 0 0
48 0 0
49 0 0
50 0 0
51 0 0
52 0 0
53 0 0
54 0 0
55 0 0
56 0 0
57 0 0
58 0 0
59 0 0
60 0 0
61 0 0
62 0 0
63 0 0
64 0 0
65 0 0
66 0 0
67 0 0
68 0 0
69 0 0
70 0 0
71 0 0
72 0 0
73 0 0
74 0 0
75 0 0
76 0 0
77 0 0
78 0 0
79 0 0
80 0 0
81 0 0
82 0 0
83 0 0
84 0 0
85 0 0
86 0 0
87 0 0
88 0 0
89 0 0
90 0 0
91 0 0
92 0 0
93 0 0
94 0 0
95 0 0
96 0 0
97 0 0
98 0 0
99 0 0
100 0 0
101 0 0
102 0 0
103 0 0
104 0 0
105 0 0
106 0 0
107 0 0
108 0 0
109 0 0
110 0 0
111 0 0
112 0 0
113 0 0
114 0 0
115 0 0
116 0 0
117 0 0
118 0 0
119 0 0
120 0 0
121 0 0
122 0 0
123 0 0
124 0 0
125 0 0
126 0 0
127 0 0
128 0 0
129 0 0
130 0 0
131 0 0
132 0 0
133 0 0
134 0 0
135 0 0
136 0 0
137 0 0
138 0 0
139 0 0
140 0 0
141 0 0
142 0 0
143 0 0
144 0 0
145 0 0
146 0 0
147 0 0
148 0 0
149 0 0
150 0 0
151 0 0
152 0 0
153 0 0
154 0 0
155 0 0
156 0 0
157 0 0
158 0 0
159 0 0
160 0 0
161 0 0
162 0 0
163 0 0
164 0 0
165 0 0
166 0 0
167 0 0
168 0 0
169 0 0
170 0 0
171 0 0
172 0 0
173 0 0
174 0 0
175 0 0
176 0 0
177 0 0
178 0 0
179 0 0
180 0 0
181 0 0
182 0 0
183 0 0
184 0 0
185 0 0
186 0 0
187 0 0
188 0 0
189 0 0
190 0 0
191 0 0
192 0 0
193 0 0
194 0 0
195 0 0
196 0 0
197 0 0
198 0 0
199 0 0
200 0 0
201 0 0
202 0 0
203 0 0
204 0 0
205 0 0
206 0 0
207 0 0
208 0 0
209 0 0
210 0 0
211 0 0
212 0 0
213 0 0
214 0 0
215 0 0
216 0 0
217 0 0
218 0 0
219 0 0
220 0 0
221 0 0
222 0 0
223 0 0
224 0 0
225 0 0
226 0 0
227 0 0
228 0 0
229 0 0
230 0 0
231 0 0
232 0 0
233 0 0
234 0 0
235 0 0
236 0 0
237 0 0
238 0 0
239 0 0
240 0 0
241 0 0
242 0 0
243 0 0
244 0 0
245 0 0
246 0 0
247 0 0
248 0 0
249 0 0
250 0 0
251 0 0
252 0 0
253 0 0
254 0 0
255 0 0
256 0 0
257 0 0
258 0 0
259 0 0
260 0 0
261 0 0
262 0 0
263 0 0
264 0 0
265 0 0
266 0 0
267 0 0
268 0 0
269 0 0
270 0 0
271 0 0
272 0 0
273 0 0
274 0 0
275 0 0
276 0 0
277 0 0
278 0 0
279 0 0
280 0 0
281 0 0
282 0 0
283 0 0
284 0 0
285 0 0
286 0 0
287 0 0
288 0 0
289 0 0
290 0 0
291 0 0
292 0 0
293 0 0
294 0 0
295 0 0
296 0 0
297 0 0
298 0 0
299 0 0
300 0 0
301 0 0
302 0 0
303 0 0
304 0 0
305 0 0
306 0 0
307 0 0
308 0 0
309 0 0
310 0 0
311 0 0
312 0 0
313 0 0
314 0 0
315 0 0
316 0 0
317 0 0
318 0 0
319 0 0
320 0 0
321 0 0
322 0 0
323 0 0
324 0 0
325 0 0
326 0 0
327 0 0
328 0 0
329 0 0
330 0 0
331 0 0
332 0 0
333 0 0
334 0 0
335 0 0
336 0 0
337 0 0
338 0 0
339 0 0
340 0 0
341 0 0
342 0 0
343 0 0
344 0 0
345 0 0
346 0 0
347 0 0
348 0 0
349 0 0
350 0 0
351 0 0
352 0 0
353 0 0
354 0 0
355 0 0
356 0 0
357 0 0
358 0 0
359 0 0
360 0 0
361 0 0
362 0 0
363 0 0
364 0 0
365 0 0
366 0 0
367 0 0
368 0 0
369 0 0
370 0 0
371 0 0
372 0 0
373 0 0
374 0 0
375 0 0
376 0 0
377 0 0
378 0 0
379 0 0
380 0 0
381 0 0
382 0 0
383 0 0
384 0 0
385 0 0
386 0 0
387 0 0
388 0 0
389 0 0
390 0 0
391 0 0
392 0 0
393 0 0
394 0 0
395 0 0
396 0 0
397 0 0
398 0 0
399 0 0
400 0 0
401 0 0
0 1 0
1 1 0
2 1 0
3 1 0
4 1 0
5 1 0
6 1 0
7 1 0
8 1 0
9 1 0
10 1 0
11 1 0
12 1 0
13 1 0
14 1 0
15 1 0
16 1 0
17 1 0
18 1 0
19 1 0
20 1 0
21 1 0
22 1 0
23 1 0
24 1 0
25 1 0
26 1 0
27 1 0
28 1 0
29 1 0
30 1 0
31 1 0
32 1 0
33 1 0
34 1 0
35 1 0
36 1 0
37 1 0
38 1 0
39 1 0
40 1 0
41 1 0
42 1 0
43 1 0
44 1 0
45 1 0
46 1 0
47 1 0
48 1 0
49 1 0
50 1 0
51 1 0
52 1 0
53 1 0
54 1 0
55 1 0
56 1 0
57 1 0
58 1 0
59 1 0
60 1 0
61 1 0
62 1 0
63 1 0
64 1 0
65 1 0
66 1 0
67 1 0
68 1 0
69 1 0
70 1 0
71 1 0
72 1 0
73 1 0
74 1 0
75 1 0
76 1 0
77 1 0
78 1 0
79 1 0
80 1 0
81 1 0
82 1 0
83 1 0
84 1 0
85 1 0
86 1 0
87 1 0
88 1 0
89 1 0
90 1 0
91 1 0
92 1 0
93 1 0
94 1 0
95 1 0
96 1 0
97 1 0
98 1 0
99 1 0
100 1 0
101 1 0
102 1 0
103 1 0
104 1 0
105 1 0
106 1 0
107 1 0
108 1 0
109 1 0
110 1 0
111 1 0
112 1 0
113 1 0
114 1 0
115 1 0
116 1 0
117 1 0
118 1 0
119 1 0
120 1 0
121 1 0
122 1 0
123 1 0
124 1 0
125 1 0
126 1 0
127 1 0
128 1 0
129 1 0
130 1 0
131 1 0
132 1 0
133 1 0
134 1 0
135 1 0
136 1 0
137 1 0
138 1 0
139 1 0
140 1 0
141 1 0
142 1 0
143 1 0
144 1 0
145 1 0
146 1 0
147 1 0
148 1 0
149 1 0
150 1 0
151 1 0
152 1 0
153 1 0
154 1 0
155 1 0
156 1 0
157 1 0
158 1 0
159 1 0
160 1 0
161 1 0
162 1 0
163 1 0
164 1 0
165 1 0
166 1 0
167 1 0
168 1 0
169 1 0
170 1 0
171 1 0
172 1 0
173 1 0
174 1 0
175 1 0
176 1 0
177 1 0
178 1 0
179 1 0
180 1 0
181 1 0
182 1 0
183 1 0
184 1 0
185 1 0
186 1 0
187 1 0
188 1 0
189 1 0
190 1 0
191 1 0
192 1 0
193 1 0
194 1 0
195 1 0
196 1 0
197 1 0
198 1 0
199 1 0
200 1 0
201 1 0
202 1 0
203 1 0
204 1 0
205 1 0
206 1 0
207 1 0
208 1 0
209 1 0
210 1 0
211 1 0
212 1 0
213 1 0
214 1 0
215 1 0
216 1 0
217 1 0
218 1 0
219 1 0
220 1 0
221 1 0
222 1 0
223 1 0
224 1 0
225 1 0
226 1 0
227 1 0
228 1 0
229 1 0
230 1 0
231 1 0
232 1 0
233 1 0
234 1 0
235 1 0
236 1 0
237 1 0
238 1 0
239 1 0
240 1 0
241 1 0
242 1 0
243 1 0
244 1 0
245 1 0
246 1 0
247 1 0
248 1 0
249 1 0
250 1 0
251 1 0
252 1 0
253 1 0
254 1 0
255 1 0
256 1 0
257 1 0
258 1 0
259 1 0
260 1 0
261 1 0
262 1 0
263 1 0
264 1 0
265 1 0
266 1 0
267 1 0
268 1 0
269 1 0
270 1 0
271 1 0
272 1 0
273 1 0
274 1 0
275 1 0
276 1 0
277 1 0
278 1 0
279 1 0
280 1 0
281 1 0
282 1 0
283 1 0
284 1 0
285 1 0
286 1 0
287 1 0
288 1 0
289 1 0
290 1 0
291 1 0
292 1 0
293 1 0
294 1 0
295 1 0
296 1 0
297 1 0
298 1 0
299 1 0
300 1 0
301 1 0
302 1 0
303 1 0
304 1 0
305 1 0
306 1 0
307 1 0
308 1 0
309 1 0
310 1 0
311 1 0
312 1 0
313 1 0
314 1 0
315 1 0
316 1 0
317 1 0
318 1 0
319 1 0
320 1 0
321 1 0
322 1 0
323 1 0
324 1 0
325 1 0
326 1 0
327 1 0
328 1 0
329 1 0
330 1 0
331 1 0
332 1 0
333 1 0
334 1 0
335 1 0
336 1 0
337 1 0
338 1 0
339 1 0
340 1 0
341 1 0
342 1 0
343 1 0
344 1 0
345 1 0
346 1 0
347 1 0
348 1 0
349 1 0
350 1 0
351 1 0
352 1 0
353 1 0
354 1 0
355 1 0
356 1 0
357 1 0
358 1 0
359 1 0
360 1 0
361 1 0
362 1 0
363 1 0
364 1 0
365 1 0
366 1 0
367 1 0
368 1 0
369 1 0
370 1 0
371 1 0
372 1 0
373 1 0
374 1 0
375 1 0
376 1 0
377 1 0
378 1 0
379 1 0
380 1 0
381 1 0
382 1 0
383 1 0
384 1 0
385 1 0
386 1 0
387 1 0
388 1 0
389 1 0
390 1 0
391 1 0
392 1 0
393 1 0
394 1 0
395 1 0
396 1 0
397 1 0
398 1 0
399 1 0
400 1 0
401 1 0
0 2 0
1 2 0
2 2 0
3 2 0
4 2 0
5 2 0
6 2 0
7 2 0
8 2 0
9 2 0
10 2 0
11 2 0
12 2 0
13 2 0
14 2 0
15 2 0
16 2 0
17 2 0
18 2 0
19 2 0
20 2 0
21 2 0
22 2 0
23 2 0
24 2 0
25 2 0
26 2 0
27 2 0
28 2 0
29 2 0
30 2 0
31 2 0
32 2 0
33 2 0
34 2 0
35 2 0
36 2 0
37 2 0
38 2 0
39 2 0
40 2 0
41 2 0
42 2 0
43 2 0
44 2 0
45 2 0
46 2 0
47 2 0
48 2 0
49 2 0
50 2 0
51 2 0
52 2 0
53 2 0
54 2 0
55 2 0
56 2 0
57 2 0
58 2 0
59 2 0
60 2 0
61 2 0
62 2 0
63 2 0
64 2 0
65 2 0
66 2 0
67 2 0
68 2 0
69 2 0
70 2 0
71 2 0
72 2 0
73 2 0
74 2 0
75 2 0
76 2 0
77 2 0
78 2 0
79 2 0
80 2 0
81 2 0
82 2 0
83 2 0
84 2 0
85 2 0
86 2 0
87 2 0
88 2 0
89 2 0
90 2 0
91 2 0
92 2 0
93 2 0
94 2 0
95 2 0
96 2 0
97 2 0
98 2 0
99 2 0
100 2 0
101 2 0
102 2 0
103 2 0
104 2 0
105 2 0
106 2 0
107 2 0
108 2 0
109 2 0
110 2 0
111 2 0
112 2 0
113 2 0
114 2 0
115 2 0
116 2 0
117 2 0
118 2 0
119 2 0
120 2 0
121 2 0
122 2 0
123 2 0
124 2 0
125 2 0
126 2 0
127 2 0
128 2 0
129 2 0
130 2 0
131 2 0
132 2 0
133 2 0
134 2 0
135 2 0
136 2 0
137 2 0
138 2 0
139 2 0
140 2 0
141 2 0
142 2 0
143 2 0
144 2 0
145 2 0
146 2 0
147 2 0
148 2 0
149 2 0
150 2 0
151 2 0
152 2 0
153 2 0
154 2 0
155 2 0
156 2 0
157 2 0
158 2 0
159 2 0
160 2 0
161 2 0
162 2 0
163 2 0
164 2 0
165 2 0
166 2 0
167 2 0
168 2 0
169 2 0
170 2 0
171 2 0
172 2 0
173 2 0
174 2 0
175 2 0
176 2 0
177 2 0
178 2 0
179 2 0
180 2 0
181 2 0
182 2 0
183 2 0
184 2 0
185 2 0
186 2 0
187 2 0
188 2 0
189 2 0
190 2 0
191 2 0
192 2 0
193 2 0
194 2 0
195 2 0
196 2 0
197 2 0
198 2 0
199 2 0
200 2 0
201 2 0
202 2 0
203 2 0
204 2 0
205 2 0
206 2 0
207 2 0
208 2 0
209 2 0
210 2 0
211 2 0
212 2 0
213 2 0
214 2 0
215 2 0
216 2 0
217 2 0
218 2 0
219 2 0
220 2 0
221 2 0
222 2 0
223 2 0
224 2 0
225 2 0
226 2 0
227 2 0
228 2 0
229 2 0
230 2 0
231 2 0
232 2 0
233 2 0
234 2 0
235 2 0
236 2 0
237 2 0
238 2 0
239 2 0
240 2 0
241 2 0
242 2 0
243 2 0
244 2 0
245 2 0
246 2 0
247 2 0
248 2 0
249 2 0
250 2 0
251 2 0
252 2 0
253 2 0
254 2 0
255 2 0
256 2 0
257 2 0
258 2 0
259 2 0
260 2 0
261 2 0
262 2 0
263 2 0
264 2 0
265 2 0
266 2 0
267 2 0
268 2 0
269 2 0
270 2 0
271 2 0
272 2 0
273 2 0
274 2 0
275 2 0
276 2 0
277 2 0
278 2 0
279 2 0
280 2 0
281 2 0
282 2 0
283 2 0
284 2 0
285 2 0
286 2 0
287 2 0
288 2 0
289 2 0
290 2 0
291 2 0
292 2 0
293 2 0
294 2 0
295 2 0
296 2 0
297 2 0
298 2 0
299 2 0
300 2 0
301 2 0
302 2 0
303 2 0
304 2 0
305 2 0
306 2 0
307 2 0
308 2 0
309 2 0
310 2 0
311 2 0
312 2 0
313 2 0
314 2 0
315 2 0
316 2 0
317 2 0
318 2 0
319 2 0
320 2 0
321 2 0
322 2 0
323 2 0
324 2 0
325 2 0
326 2 0
327 2 0
328 2 0
329 2 0
330 2 0
331 2 0
332 2 0
333 2 0
334 2 0
335 2 0
336 2 0
337 2 0
338 2 0
339 2 0
340 2 0
341 2 0
342 2 0
343 2 0
344 2 0
345 2 0
346 2 0
347 2 0
348 2 0
349 2 0
350 2 0
351 2 0
352 2 0
353 2 0
354 2 0
355 2 0
356 2 0
357 2 0
358 2 0
359 2 0
360 2 0
361 2 0
362 2 0
363 2 0
364 2 0
365 2 0
366 2 0
367 2 0
368 2 0
369 2 0
370 2 0
371 2 0
372 2 0
373 2 0
374 2 0
375 2 0
376 2 0
377 2 0
378 2 0
379 2 0
380 2 0
381 2 0
382 2 0
383 2 0
384 2 0
385 2 0
386 2 0
387 2 0
388 2 0
389 2 0
390 2 0
391 2 0
392 2 0
393 2 0
394 2 0
395 2 0
396 2 0
397 2 0
398 2 0
399 2 0
400 2 0
401 2 0
0 3 0
1 3 0
2 3 0
3 3 0
4 3 0
5 3 0
6 3 0
7 3 0
8 3 0
9 3 0
10 3 0
11 3 0
12 3 0
13 3 0
14 3 0
15 3 0
16 3 0
17 3 0
18 3 0
19 3 0
20 3 0
21 3 0
22 3 0
23 3 0
24 3 0
25 3 0
26 3 0
27 3 0
28 3 0
29 3 0
30 3 0
31 3 0
32 3 0
33 3 0
34 3 0
35 3 0
36 3 0
37 3 0
38 3 0
39 3 0
40 3 0
41 3 0
42 3 0
43 3 0
44 3 0
45 3 0
46 3 0
47 3 0
48 3 0
49 3 0
50 3 0
51 3 0
52 3 0
53 3 0
54 3 0
55 3 0
56 3 0
57 3 0
58 3 0
59 3 0
60 3 0
61 3 0
62 3 0
63 3 0
64 3 0
65 3 0
66 3 0
67 3 0
68 3 0
69 3 0
70 3 0
71 3 0
72 3 0
73 3 0
74 3 0
75 3 0
76 3 0
77 3 0
78 3 0
79 3 0
80 3 0
81 3 0
82 3 0
[...]
POINT_DATA 8844

SCALARS u float 1
LOOKUP_TABLE default
-1
-0.875251
-0.804362
-0.77198
-0.756062
-0.747312
-0.742059
-0.738708
-0.736482
-0.734961
-0.733902
-0.733154
-0.732621
-0.732237
-0.73196
-0.731758
-0.73161
-0.731501
-0.731421
-0.731361
-0.731315
-0.73128
-0.731253
-0.731232
-0.731214
-0.7312
-0.731188
-0.731178
-0.731168
-0.73116
-0.731152
-0.731144
-0.731137
-0.73113
-0.731124
-0.731117
-0.731111
-0.731104
-0.731098
-0.731092
-0.731086
-0.731079
-0.731073
-0.731067
-0.731061
-0.731055
-0.731049
-0.731043
-0.731037
-0.731031
-0.731025
-0.731019
-0.731013
-0.731007
-0.731001
-0.730996
-0.73099
-0.730984
-0.730978
-0.730972
-0.730967
-0.730961
-0.730955
-0.730949
-0.730944
-0.730938
-0.730932
-0.730927
-0.730921
-0.730916
-0.73091
-0.730905
-0.730899
-0.730894
-0.730888
-0.730883
-0.730878
-0.730872
-0.730867
-0.730862
-0.730857
-0.730851
-0.730846
-0.730841
-0.730836
-0.730831
-0.730826
-0.730821
-0.730816
-0.730811
-0.730806
-0.730801
-0.730796
-0.730791
-0.730787
-0.730782
-0.730777
-0.730772
-0.730768
-0.730763
-0.730759
-0.730754
-0.730749
-0.730745
-0.730741
-0.730736
-0.730732
-0.730728
-0.730723
-0.730719
-0.730715
-0.730711
-0.730706
-0.730702
-0.730698
-0.730694
-0.73069
-0.730686
-0.730683
-0.730679
-0.730675
-0.730671
-0.730667
-0.730664
-0.73066
-0.730657
-0.730653
-0.73065
-0.730646
-0.730643
-0.730639
-0.730636
-0.730633
-0.730629
-0.730626
-0.730623
-0.73062
-0.730617
-0.730614
-0.730611
-0.730608
-0.730605
-0.730602
-0.7306
-0.730597
-0.730594
-0.730592
-0.730589
-0.730587
-0.730584
-0.730582
-0.730579
-0.730577
-0.730575
-0.730572
-0.73057
-0.730568
-0.730566
-0.730564
-0.730562
-0.73056
-0.730558
-0.730556
-0.730555
-0.730553
-0.730551
-0.730549
-0.730548
-0.730546
-0.730545
-0.730543
-0.730542
-0.730541
-0.730539
-0.730538
-0.730537
-0.730536
-0.730535
-0.730534
-0.730533
-0.730532
-0.730531
-0.73053
-0.73053
-0.730529
-0.730528
-0.730528
-0.730527
-0.730527
-0.730526
-0.730526
-0.730525
-0.730525
-0.730525
-0.730525
-0.730525
-0.730525
-0.730525
-0.730525
-0.730525
-0.730525
-0.730525
-0.730525
-0.730526
-0.730526
-0.730526
-0.730527
-0.730527
-0.730528
-0.730529
-0.730529
-0.73053
-0.730531
-0.730531
-0.730532
-0.730533
-0.730534
-0.730535
-0.730536
-0.730538
-0.730539
-0.73054
-0.730541
-0.730543
-0.730544
-0.730545
-0.730547
-0.730548
-0.73055
-0.730552
-0.730553
-0.730555
-0.730557
-0.730559
-0.730561
-0.730563
-0.730565
-0.730567
-0.730569
-0.730571
-0.730573
-0.730575
-0.730578
-0.73058
-0.730582
-0.730585
-0.730587
-0.73059
-0.730592
-0.730595
-0.730598
-0.7306
-0.730603
-0.730606
-0.730609
-0.730612
-0.730614
-0.730617
-0.730621
-0.730624
-0.730627
-0.73063
-0.730633
-0.730636
-0.73064
-0.730643
-0.730646
-0.73065
-0.730653
-0.730657
-0.73066
-0.730664
-0.730667
-0.730671
-0.730675
-0.730679
-0.730682
-0.730686
-0.73069
-0.730694
-0.730698
-0.730702
-0.730706
-0.73071
-0.730714
-0.730718
-0.730722
-0.730727
-0.730731
-0.730735
-0.730739
-0.730744
-0.730748
-0.730753
-0.730757
-0.730762
-0.730766
-0.730771
-0.730775
-0.73078
-0.730785
-0.730789
-0.730794
-0.730799
-0.730804
-0.730808
-0.730813
-0.730818
-0.730823
-0.730828
-0.730833
-0.730838
-0.730843
-0.730848
-0.730853
-0.730858
-0.730863
-0.730868
-0.730874
-0.730879
-0.730884
-0.730889
-0.730895
-0.7309
-0.730905
-0.730911
-0.730916
-0.730921
-0.730927
-0.730932
-0.730938
-0.730943
-0.730949
-0.730954
-0.73096
-0.730966
-0.730971
-0.730977
-0.730982
-0.730988
-0.730994
-0.730999
-0.731005
-0.731011
-0.731017
-0.731022
-0.731028
-0.731034
-0.73104
-0.731046
-0.731052
-0.731057
-0.731063
-0.731069
-0.731075
-0.731081
-0.731087
-0.731093
-0.731099
-0.731105
-0.731111
-0.731117
-0.731123
-0.731129
-0.731136
-0.731142
-0.731148
-0.731155
-0.731161
-0.731168
-0.731176
-0.731183
-0.731191
-0.731201
-0.731211
-0.731222
-0.731236
-0.731253
-0.731273
-0.731299
-0.731332
-0.731375
-0.731433
-0.731509
-0.731612
-0.731752
-0.731943
-0.732205
-0.732566
-0.733067
-0.733768
-0.734759
-0.736174
-0.738234
-0.741305
-0.746054
-0.753797
-0.76745
-0.794357
-0.855037
-1
-0.855037
1
0.871433
0.797252
0.763255
0.746584
0.737449
0.731978
0.728494
0.726182
0.724605
0.723508
0.722734
0.722183
0.721788
0.721503
0.721296
0.721145
0.721034
0.720953
0.720893
0.720848
0.720814
0.720788
0.720768
0.720752
0.720739
0.720728
0.72072
0.720712
0.720705
0.720699
0.720693
0.720688
0.720683
0.720678
0.720673
0.720668
0.720664
0.720659
0.720655
0.72065
0.720646
0.720642
0.720637
0.720633
0.720628
0.720624
0.72062
0.720615
0.720611
0.720607
0.720603
0.720598
0.720594
0.72059
0.720586
0.720581
0.720577
0.720573
0.720569
0.720565
0.720561
0.720557
0.720553
0.720548
0.720544
0.72054
0.720536
0.720532
0.720528
0.720524
0.72052
0.720517
0.720513
0.720509
0.720505
0.720501
0.720497
0.720493
0.72049
0.720486
0.720482
0.720478
0.720475
0.720471
0.720467
0.720464
0.72046
0.720456
0.720453
0.720449
0.720446
0.720442
0.720439
0.720435
0.720432
0.720429
0.720425
0.720422
0.720418
0.720415
0.720412
0.720409
0.720405
0.720402
0.720399
0.720396
0.720393
0.72039
0.720387
0.720384
0.720381
0.720378
0.720375
0.720372
0.720369
0.720366
0.720363
0.72036
0.720357
0.720355
0.720352
0.720349
0.720347
0.720344
0.720341
0.720339
0.720336
0.720334
0.720331
0.720329
0.720327
0.720324
0.720322
0.72032
0.720317
0.720315
0.720313
0.720311
0.720308
0.720306
0.720304
0.720302
0.7203
0.720298
0.720296
0.720294
0.720293
0.720291
0.720289
0.720287
0.720285
0.720284
0.720282
0.72028
0.720279
0.720277
0.720276
0.720274
0.720273
0.720272
0.72027
0.720269
0.720268
0.720266
0.720265
0.720264
0.720263
0.720262
0.720261
0.72026
0.720259
0.720258
0.720257
0.720256
0.720255
0.720254
0.720253
0.720253
0.720252
0.720251
0.720251
0.72025
0.72025
0.720249
0.720249
0.720248
0.720248
0.720247
0.720247
0.720247
0.720247
0.720246
0.720246
0.720246
0.720246
0.720246
0.720246
0.720246
0.720246
0.720246
0.720246
0.720246
0.720247
0.720247
0.720247
0.720248
0.720248
0.720248
0.720249
0.720249
0.72025
0.72025
0.720251
0.720252
0.720252
0.720253
0.720254
0.720255
0.720255
0.720256
0.720257
0.720258
0.720259
0.72026
0.720261
0.720262
0.720263
0.720265
0.720266
0.720267
0.720268
0.72027
0.720271
0.720272
0.720274
0.720275
0.720277
0.720278
0.72028
0.720281
0.720283
0.720285
0.720286
0.720288
0.72029
0.720292
0.720293
0.720295
0.720297
0.720299
0.720301
0.720303
0.720305
0.720307
0.720309
0.720312
0.720314
0.720316
0.720318
0.72032
0.720323
0.720325
0.720327
0.72033
0.720332
0.720335
0.720337
0.72034
0.720342
0.720345
0.720347
0.72035
0.720353
0.720355
0.720358
0.720361
0.720363
0.720366
0.720369
0.720372
0.720375
0.720378
0.720381
0.720384
0.720387
0.72039
0.720393
0.720396
0.720399
0.720402
0.720405
0.720408
0.720412
0.720415
0.720418
0.720421
0.720425
0.720428
0.720431
0.720435
0.720438
0.720441
0.720445
0.720448
0.720452
0.720455
0.720459
0.720462
0.720466
0.720469
0.720473
0.720477
0.72048
0.720484
0.720488
0.720491
0.720495
0.720499
0.720502
0.720506
0.72051
0.720514
0.720518
0.720521
0.720525
0.720529
0.720533
0.720537
0.720541
0.720545
0.720549
0.720553
0.720557
0.720561
0.720565
0.720569
0.720573
0.720577
0.720581
0.720585
0.720589
0.720593
0.720597
0.720601
0.720605
0.720609
0.720614
0.720618
0.720622
0.720626
0.72063
0.720635
0.720639
0.720643
0.720647
0.720652
0.720656
0.72066
0.720664
0.720669
0.720673
0.720677
0.720682
0.720686
0.720691
0.720696
0.7207
0.720705
0.720711
0.720716
0.720722
0.720729
0.720736
0.720744
0.720755
0.720767
0.720782
0.720801
0.720826
0.720858
0.720901
0.720958
0.721035
0.72114
0.721282
0.721477
0.721746
0.722117
0.722634
0.723358
0.724381
0.725845
0.727976
0.731157
0.73608
0.744113
0.758296
0.786289
0.849479
1
0.855037
1
1.0446
1.04751
1.03786
1.02847
1.02155
1.01674
1.01342
1.01111
1.00949
1.00835
1.00753
1.00694
1.00652
1.00621
1.00599
1.00582
1.0057
1.00561
1.00555
1.0055
1.00546
1.00543
1.00541
1.00539
1.00538
1.00537
1.00536
1.00535
1.00534
1.00533
1.00533
1.00532
1.00532
1.00531
1.0053
1.0053
1.00529
1.00529
1.00528
1.00528
1.00527
1.00527
1.00526
1.00526
1.00525
1.00525
1.00524
1.00524
1.00523
1.00523
1.00522
1.00522
1.00521
1.00521
1.0052
1.0052
1.00519
1.00519
1.00519
1.00518
1.00518
1.00517
1.00517
1.00516
1.00516
1.00515
1.00515
1.00514
1.00514
1.00513
1.00513
1.00513
1.00512
1.00512
1.00511
1.00511
1.0051
1.0051
1.0051
1.00509
1.00509
1.00508
1.00508
1.00507
1.00507
1.00507
1.00506
1.00506
1.00505
1.00505
1.00505
1.00504
1.00504
1.00503
1.00503
1.00503
1.00502
1.00502
1.00501
1.00501
1.00501
1.005
1.005
1.005
1.00499
1.00499
1.00499
1.00498
1.00498
1.00498
1.00497
1.00497
1.00497
1.00496
1.00496
1.00496
1.00495
1.00495
1.00495
1.00494
1.00494
1.00494
1.00493
1.00493
1.00493
1.00493
1.00492
1.00492
1.00492
1.00491
1.00491
1.00491
1.00491
1.0049
1.0049
1.0049
1.0049
1.00489
1.00489
1.00489
1.00489
1.00488
1.00488
1.00488
1.00488
1.00488
1.00487
1.00487
1.00487
1.00487
1.00487
1.00486
1.00486
1.00486
1.00486
1.00486
1.00485
1.00485
1.00485
1.00485
1.00485
1.00485
1.00485
1.00484
1.00484
1.00484
1.00484
1.00484
1.00484
1.00484
1.00484
1.00483
1.00483
1.00483
1.00483
1.00483
1.00483
1.00483
1.00483
1.00483
1.00483
1.00483
1.00483
1.00482
1.00482
1.00482
1.00482
1.00482
1.00482
1.00482
1.00482
1.00482
1.00482
1.00482
1.00482
1.00482
1.00482
1.00482
1.00482
1.00482
1.00482
1.00482
1.00482
1.00482
1.00482
1.00482
1.00482
1.00482
1.00482
1.00482
1.00483
1.00483
1.00483
1.00483
1.00483
1.00483
1.00483
1.00483
1.00483
1.00483
1.00483
1.00483
1.00484
1.00484
1.00484
1.00484
1.00484
1.00484
1.00484
1.00484
1.00485
1.00485
1.00485
1.00485
1.00485
1.00485
1.00485
1.00486
1.00486
1.00486
1.00486
1.00486
1.00487
1.00487
1.00487
1.00487
1.00487
1.00488
1.00488
1.00488
1.00488
1.00488
1.00489
1.00489
1.00489
1.00489
1.0049
1.0049
1.0049
1.0049
1.00491
1.00491
1.00491
1.00491
1.00492
1.00492
1.00492
1.00493
1.00493
1.00493
1.00493
1.00494
1.00494
1.00494
1.00495
1.00495
1.00495
1.00496
1.00496
1.00496
1.00496
1.00497
1.00497
1.00497
1.00498
1.00498
1.00498
1.00499
1.00499
1.005
1.005
1.005
1.00501
1.00501
1.00501
1.00502
1.00502
1.00502
1.00503
1.00503
1.00504
1.00504
1.00504
1.00505
1.00505
1.00506
1.00506
1.00506
1.00507
1.00507
1.00508
1.00508
1.00508
1.00509
1.00509
1.0051
1.0051
1.0051
1.00511
1.00511
1.00512
1.00512
1.00513
1.00513
1.00513
1.00514
1.00514
1.00515
1.00515
1.00516
1.00516
1.00517
1.00517
1.00518
1.00518
1.00518
1.00519
1.00519
1.0052
1.0052
1.00521
1.00521
1.00522
1.00522
1.00523
1.00523
1.00524
1.00524
1.00525
1.00525
1.00526
1.00526
1.00526
1.00527
1.00527
1.00528
1.00528
1.00529
1.00529
1.0053
1.0053
1.00531
1.00531
1.00532
1.00532
1.00533
1.00534
1.00534
1.00535
1.00535
1.00536
1.00537
1.00538
1.00538
1.0054
1.00541
1.00543
1.00545
1.00547
1.00551
1.00556
1.00562
1.0057
1.00581
1.00596
1.00617
1.00646
1.00685
1.0074
1.00815
1.00921
1.0107
1.01281
1.01584
1.02022
1.02655
1.03539
1.0457
1.04751
1
1.04643
1
1.03016
1.04537
1.04806
1.04614
1.04327
1.04066
1.03857
1.03699
1.03582
1.03495
1.03432
1.03386
1.03352
1.03327
1.03309
1.03296
1.03286
1.03278
1.03273
1.03269
1.03266
1.03263
1.03261
1.0326
1.03258
1.03257
1.03256
1.03256
1.03255
1.03254
1.03253
1.03253
1.03252
1.03252
1.03251
1.03251
1.0325
1.0325
1.03249
1.03248
1.03248
1.03247
1.03247
1.03246
1.03246
1.03245
1.03245
1.03244
1.03244
1.03243
1.03243
1.03242
1.03242
1.03241
1.03241
1.0324
1.0324
1.03239
1.03239
1.03238
1.03238
1.03237
1.03237
1.03236
1.03236
1.03235
1.03235
1.03235
1.03234
1.03234
1.03233
1.03233
1.03232
1.03232
1.03231
1.03231
1.0323
1.0323
1.0323
1.03229
1.03229
1.03228
1.03228
1.03227
1.03227
1.03227
1.03226
1.03226
1.03225
1.03225
1.03224
1.03224
1.03224
1.03223
1.03223
1.03222
1.03222
1.03222
1.03221
1.03221
1.0322
1.0322
1.0322
1.03219
1.03219
1.03219
1.03218
1.03218
1.03218
1.03217
1.03217
1.03216
1.03216
1.03216
1.03215
1.03215
1.03215
1.03214
1.03214
1.03214
1.03214
1.03213
1.03213
1.03213
1.03212
1.03212
1.03212
1.03211
1.03211
1.03211
1.03211
1.0321
1.0321
1.0321
1.03209
1.03209
1.03209
1.03209
1.03208
1.03208
1.03208
1.03208
1.03208
1.03207
1.03207
1.03207
1.03207
1.03206
1.03206
1.03206
1.03206
1.03206
1.03205
1.03205
1.03205
1.03205
1.03205
1.03205
1.03204
1.03204
1.03204
1.03204
1.03204
1.03204
1.03203
1.03203
1.03203
1.03203
1.03203
1.03203
1.03203
1.03203
1.03203
1.03202
1.03202
1.03202
1.03202
1.03202
1.03202
1.03202
1.03202
1.03202
1.03202
1.03202
1.03202
1.03202
1.03201
1.03201
1.03201
1.03201
1.03201
1.03201
1.03201
1.03201
1.03201
1.03201
1.03201
1.03201
1.03201
1.03201
1.03201
1.03201
1.03201
1.03201
1.03201
1.03201
1.03201
1.03202
1.03202
1.03202
1.03202
1.03202
1.03202
1.03202
1.03202
1.03202
1.03202
1.03202
1.03202
1.03202
1.03203
1.03203
1.03203
1.03203
1.03203
1.03203
1.03203
1.03203
1.03204
1.03204
1.03204
1.03204
1.03204
1.03204
1.03204
1.03205
1.03205
1.03205
1.03205
1.03205
1.03205
1.03206
1.03206
1.03206
1.03206
1.03206
1.03207
1.03207
1.03207
1.03207
1.03208
1.03208
1.03208
1.03208
1.03209
1.03209
1.03209
1.03209
1.0321
1.0321
1.0321
1.0321
1.03211
1.03211
1.03211
1.03211
1.03212
1.03212
1.03212
1.03213
1.03213
1.03213
1.03213
1.03214
1.03214
1.03214
1.03215
1.03215
1.03215
1.03216
1.03216
1.03216
1.03217
1.03217
1.03217
1.03218
1.03218
1.03218
1.03219
1.03219
1.0322
1.0322
1.0322
1.03221
1.03221
1.03221
1.03222
1.03222
1.03223
1.03223
1.03223
1.03224
1.03224
1.03225
1.03225
1.03225
1.03226
1.03226
1.03227
1.03227
1.03227
1.03228
1.03228
1.03229
1.03229
1.0323
1.0323
1.03231
1.03231
1.03231
1.03232
1.03232
1.03233
1.03233
1.03234
1.03234
1.03235
1.03235
1.03235
1.03236
1.03236
1.03237
1.03237
1.03238
1.03238
1.03239
1.03239
1.0324
1.0324
1.03241
1.03241
1.03242
1.03242
1.03243
1.03243
1.03244
1.03244
1.03245
1.03245
1.03246
1.03246
1.03247
1.03247
1.03248
1.03248
1.03249
1.03249
1.0325
1.0325
1.03251
1.03251
1.03252
1.03252
1.03253
1.03253
1.03254
1.03254
1.03255
1.03256
1.03256
1.03257
1.03258
1.03258
1.03259
1.0326
1.03261
1.03263
1.03265
1.03267
1.0327
1.03274
1.03279
1.03286
1.03295
1.03307
1.03324
1.03347
1.03378
1.03421
1.03479
1.03558
1.03666
1.03811
1.04004
1.04248
1.04528
1.04755
1.04646
1.03457
1
1.03312
1
1.01676
1.03023
1.03665
1.03878
1.03892
1.03833
1.03755
1.03682
1.03621
1.03573
1.03535
1.03507
1.03486
1.0347
1.03458
1.03449
1.03443
1.03438
1.03434
1.03431
1.03429
1.03427
1.03425
1.03424
1.03423
1.03422
1.03421
1.03421
1.0342
1.03419
1.03419
1.03418
1.03418
1.03417
1.03416
1.03416
1.03415
1.03415
1.03414
1.03414
1.03413
1.03413
1.03412
1.03412
1.03411
1.03411
1.0341
1.0341
1.03409
1.03409
1.03408
1.03408
1.03407
1.03407
1.03406
1.03406
1.03405
1.03405
1.03404
1.03404
1.03403
1.03403
1.03402
1.03402
1.03401
1.03401
1.034
1.034
1.03399
1.03399
1.03398
1.03398
1.03398
1.03397
1.03397
1.03396
1.03396
1.03395
1.03395
1.03394
1.03394
1.03394
1.03393
1.03393
1.03392
1.03392
1.03391
1.03391
1.03391
1.0339
1.0339
1.03389
1.03389
1.03388
1.03388
1.03388
1.03387
1.03387
1.03387
1.03386
1.03386
1.03385
1.03385
1.03385
1.03384
1.03384
1.03384
1.03383
1.03383
1.03382
1.03382
1.03382
1.03381
1.03381
1.03381
1.0338
1.0338
1.0338
1.03379
1.03379
1.03379
1.03378
1.03378
1.03378
1.03378
1.03377
1.03377
1.03377
1.03376
1.03376
1.03376
1.03376
1.03375
1.03375
1.03375
1.03374
1.03374
1.03374
1.03374
1.03373
1.03373
1.03373
1.03373
1.03373
1.03372
1.03372
1.03372
1.03372
1.03371
1.03371
1.03371
1.03371
1.03371
1.0337
1.0337
1.0337
1.0337
1.0337
1.0337
1.03369
1.03369
1.03369
1.03369
1.03369
1.03369
1.03369
1.03368
1.03368
1.03368
1.03368
1.03368
1.03368
1.03368
1.03368
1.03368
1.03367
1.03367
1.03367
1.03367
1.03367
1.03367
1.03367
1.03367
1.03367
1.03367
1.03367
1.03367
1.03367
1.03367
1.03367
1.03367
1.03367
1.03367
1.03366
1.03366
1.03366
1.03366
1.03366
1.03366
1.03366
1.03367
1.03367
1.03367
1.03367
1.03367
1.03367
1.03367
1.03367
1.03367
1.03367
1.03367
1.03367
1.03367
1.03367
1.03367
1.03367
1.03367
1.03367
1.03368
1.03368
1.03368
1.03368
1.03368
1.03368
1.03368
1.03368
1.03368
1.03369
1.03369
1.03369
1.03369
1.03369
1.03369
1.03369
1.0337
1.0337
1.0337
1.0337
1.0337
1.03371
1.03371
1.03371
1.03371
1.03371
1.03371
1.03372
1.03372
1.03372
1.03372
1.03373
1.03373
1.03373
1.03373
1.03373
1.03374
1.03374
1.03374
1.03374
1.03375
1.03375
1.03375
1.03376
1.03376
1.03376
1.03376
1.03377
1.03377
1.03377
1.03378
1.03378
1.03378
1.03378
1.03379
1.03379
1.03379
1.0338
1.0338
1.0338
1.03381
1.03381
1.03381
1.03382
1.03382
1.03382
1.03383
1.03383
1.03383
1.03384
1.03384
1.03384
1.03385
1.03385
1.03386
1.03386
1.03386
1.03387
1.03387
1.03388
1.03388
1.03388
1.03389
1.03389
1.03389
1.0339
1.0339
1.03391
1.03391
1.03392
1.03392
1.03392
1.03393
1.03393
1.03394
1.03394
1.03395
1.03395
1.03395
1.03396
1.03396
1.03397
1.03397
1.03398
1.03398
1.03399
1.03399
1.03399
1.034
1.034
1.03401
1.03401
1.03402
1.03402
1.03403
1.03403
1.03404
1.03404
1.03405
1.03405
1.03406
1.03406
1.03407
1.03407
1.03407
1.03408
1.03408
1.03409
1.03409
1.0341
1.0341
1.03411
1.03411
1.03412
1.03412
1.03413
1.03413
1.03414
1.03414
1.03415
1.03415
1.03416
1.03417
1.03417
1.03418
1.03418
1.03419
1.03419
1.0342
1.0342
1.03421
1.03421
1.03422
1.03423
1.03423
1.03424
1.03425
1.03426
1.03427
1.03428
1.0343
1.03432
1.03435
1.03438
1.03443
1.03449
1.03457
1.03468
1.03483
1.03502
1.03528
1.03563
1.03608
1.03664
1.03733
1.03808
1.03872
1.0388
1.03729
1.03217
1.02033
1
1.01942
1
1.01048
1.02103
1.02793
1.03178
1.03371
1.03457
1.03489
1.03495
1.03489
1.0348
1.03471
1.03463
1.03456
1.0345
1.03446
1.03442
1.03439
1.03437
1.03435
1.03434
1.03433
1.03432
1.03431
1.0343
1.03429
1.03429
1.03428
1.03427
1.03427
1.03426
1.03426
1.03425
1.03425
1.03424
1.03424
1.03423
1.03423
1.03422
1.03421
1.03421
1.0342
1.0342
1.03419
1.03419
1.03418
1.03418
1.03417
1.03417
1.03416
1.03416
1.03415
1.03415
1.03414
1.03414
1.03413
1.03413
1.03412
1.03412
1.03411
1.03411
1.0341
1.0341
1.03409
1.03409
1.03408
1.03408
1.03407
1.03407
1.03407
1.03406
1.03406
1.03405
1.03405
1.03404
1.03404
1.03403
1.03403
1.03402
1.03402
1.03402
1.03401
1.03401
1.034
1.034
1.03399
1.03399
1.03399
1.03398
1.03398
1.03397
1.03397
1.03396
1.03396
1.03396
1.03395
1.03395
1.03394
1.03394
1.03394
1.03393
1.03393
1.03392
1.03392
1.03392
1.03391
1.03391
1.03391
1.0339
1.0339
1.0339
1.03389
1.03389
1.03389
1.03388
1.03388
1.03388
1.03387
1.03387
1.03387
1.03386
1.03386
1.03386
1.03385
1.03385
1.03385
1.03384
1.03384
1.03384
1.03384
1.03383
1.03383
1.03383
1.03382
1.03382
1.03382
1.03382
1.03381
1.03381
1.03381
1.03381
1.0338
1.0338
1.0338
1.0338
1.03379
1.03379
1.03379
1.03379
1.03379
1.03378
1.03378
1.03378
1.03378
1.03378
1.03377
1.03377
1.03377
1.03377
1.03377
1.03377
1.03376
1.03376
1.03376
1.03376
1.03376
1.03376
1.03376
1.03375
1.03375
1.03375
1.03375
1.03375
1.03375
1.03375
1.03375
1.03375
1.03374
1.03374
1.03374
1.03374
1.03374
1.03374
1.03374
1.03374
1.03374
1.03374
1.03374
1.03374
1.03374
1.03374
1.03374
1.03374
1.03374
1.03374
1.03374
1.03374
1.03374
1.03374
1.03374
1.03374
1.03374
1.03374
1.03374
1.03374
1.03374
1.03374
1.03374
1.03374
1.03374
1.03374
1.03374
1.03374
1.03374
1.03374
1.03374
1.03374
1.03375
1.03375
1.03375
1.03375
1.03375
1.03375
1.03375
1.03375
1.03375
1.03375
1.03376
1.03376
1.03376
1.03376
1.03376
1.03376
1.03376
1.03377
1.03377
1.03377
1.03377
1.03377
1.03377
1.03378
1.03378
1.03378
1.03378
1.03378
1.03379
1.03379
1.03379
1.03379
1.03379
1.0338
1.0338
1.0338
1.0338
1.03381
1.03381
1.03381
1.03381
1.03382
1.03382
1.03382
1.03382
1.03383
1.03383
1.03383
1.03384
1.03384
1.03384
1.03384
1.03385
1.03385
1.03385
1.03386
1.03386
1.03386
1.03386
1.03387
1.03387
1.03387
1.03388
1.03388
1.03388
1.03389
1.03389
1.03389
1.0339
1.0339
1.03391
1.03391
1.03391
1.03392
1.03392
1.03392
1.03393
1.03393
1.03393
1.03394
1.03394
1.03395
1.03395
1.03395
1.03396
1.03396
1.03397
1.03397
1.03397
1.03398
1.03398
1.03399
1.03399
1.034
1.034
1.034
1.03401
1.03401
1.03402
1.03402
1.03403
1.03403
1.03403
1.03404
1.03404
1.03405
1.03405
1.03406
1.03406
1.03407
1.03407
1.03407
1.03408
1.03408
1.03409
1.03409
1.0341
1.0341
1.03411
1.03411
1.03412
1.03412
1.03413
1.03413
1.03414
1.03414
1.03415
1.03415
1.03416
1.03416
1.03417
1.03417
1.03418
1.03418
1.03419
1.03419
1.0342
1.0342
1.03421
1.03421
1.03422
1.03422
1.03423
1.03423
1.03424
1.03424
1.03425
1.03425
1.03426
1.03426
1.03427