# vtk DataFile Version 2.0
FlowField
ASCII
DATASET STRUCTURED_GRID
DIMENSIONS 102 1 12 
POINTS 1224 double
0 0 0
0.4 0 0
0.8 0 0
1.2 0 0
1.6 0 0
2 0 0
2.4 0 0
2.8 0 0
3.2 0 0
3.6 0 0
4 0 0
4.4 0 0
4.8 0 0
5.2 0 0
5.6 0 0
6 0 0
6.4 0 0
6.8 0 0
7.2 0 0
7.6 0 0
8 0 0
8.4 0 0
8.8 0 0
9.2 0 0
9.6 0 0
10 0 0
10.4 0 0
10.8 0 0
11.2 0 0
11.6 0 0
12 0 0
12.4 0 0
12.8 0 0
13.2 0 0
13.6 0 0
14 0 0
14.4 0 0
14.8 0 0
15.2 0 0
15.6 0 0
16 0 0
16.4 0 0
16.8 0 0
17.2 0 0
17.6 0 0
18 0 0
18.4 0 0
18.8 0 0
19.2 0 0
19.6 0 0
20 0 0
20.4 0 0
20.8 0 0
21.2 0 0
21.6 0 0
22 0 0
22.4 0 0
22.8 0 0
23.2 0 0
23.6 0 0
24 0 0
24.4 0 0
24.8 0 0
25.2 0 0
25.6 0 0
26 0 0
26.4 0 0
26.8 0 0
27.2 0 0
27.6 0 0
28 0 0
28.4 0 0
28.8 0 0
29.2 0 0
29.6 0 0
30 0 0
30.4 0 0
30.8 0 0
31.2 0 0
31.6 0 0
32 0 0
32.4 0 0
32.8 0 0
33.2 0 0
33.6 0 0
34 0 0
34.4 0 0
34.8 0 0
35.2 0 0
35.6 0 0
36 0 0
36.4 0 0
36.8 0 0
37.2 0 0
37.6 0 0
38 0 0
38.4 0 0
38.8 0 0
39.2 0 0
39.6 0 0
40 0 0
40.4 0 0
0 0.1 0
0.4 0.1 0
0.8 0.1 0
1.2 0.1 0
1.6 0.1 0
2 0.1 0
2.4 0.1 0
2.8 0.1 0
3.2 0.1 0
3.6 0.1 0
4 0.1 0
4.4 0.1 0
4.8 0.1 0
5.2 0.1 0
5.6 0.1 0
6 0.1 0
6.4 0.1 0
6.8 0.1 0
7.2 0.1 0
7.6 0.1 0
8 0.1 0
8.4 0.1 0
8.8 0.1 0
9.2 0.1 0
9.6 0.1 0
10 0.1 0
10.4 0.1 0
10.8 0.1 0
11.2 0.1 0
11.6 0.1 0
12 0.1 0
12.4 0.1 0
12.8 0.1 0
13.2 0.1 0
13.6 0.1 0
14 0.1 0
14.4 0.1 0
14.8 0.1 0
15.2 0.1 0
15.6 0.1 0
16 0.1 0
16.4 0.1 0
16.8 0.1 0
17.2 0.1 0
17.6 0.1 0
18 0.1 0
18.4 0.1 0
18.8 0.1 0
19.2 0.1 0
19.6 0.1 0
20 0.1 0
20.4 0.1 0
20.8 0.1 0
21.2 0.1 0
21.6 0.1 0
22 0.1 0
22.4 0.1 0
22.8 0.1 0
23.2 0.1 0
23.6 0.1 0
24 0.1 0
24.4 0.1 0
24.8 0.1 0
25.2 0.1 0
25.6 0.1 0
26 0.1 0
26.4 0.1 0
26.8 0.1 0
27.2 0.1 0
27.6 0.1 0
28 0.1 0
28.4 0.1 0
28.8 0.1 0
29.2 0.1 0
29.6 0.1 0
30 0.1 0
30.4 0.1 0
30.8 0.1 0
31.2 0.1 0
31.6 0.1 0
32 0.1 0
32.4 0.1 0
32.8 0.1 0
33.2 0.1 0
33.6 0.1 0
34 0.1 0
34.4 0.1 0
34.8 0.1 0
35.2 0.1 0
35.6 0.1 0
36 0.1 0
36.4 0.1 0
36.8 0.1 0
37.2 0.1 0
37.6 0.1 0
38 0.1 0
38.4 0.1 0
38.8 0.1 0
39.2 0.1 0
39.6 0.1 0
40 0.1 0
40.4 0.1 0
0 0.2 0
0.4 0.2 0
0.8 0.2 0
1.2 0.2 0
1.6 0.2 0
2 0.2 0
2.4 0.2 0
2.8 0.2 0
3.2 0.2 0
3.6 0.2 0
4 0.2 0
4.4 0.2 0
4.8 0.2 0
5.2 0.2 0
5.6 0.2 0
6 0.2 0
6.4 0.2 0
6.8 0.2 0
7.2 0.2 0
7.6 0.2 0
8 0.2 0
8.4 0.2 0
8.8 0.2 0
9.2 0.2 0
9.6 0.2 0
10 0.2 0
10.4 0.2 0
10.8 0.2 0
11.2 0.2 0
11.6 0.2 0
12 0.2 0
12.4 0.2 0
12.8 0.2 0
13.2 0.2 0
13.6 0.2 0
14 0.2 0
14.4 0.2 0
14.8 0.2 0
15.2 0.2 0
15.6 0.2 0
16 0.2 0
16.4 0.2 0
16.8 0.2 0
17.2 0.2 0
17.6 0.2 0
18 0.2 0
18.4 0.2 0
18.8 0.2 0
19.2 0.2 0
19.6 0.2 0
20 0.2 0
20.4 0.2 0
20.8 0.2 0
21.2 0.2 0
21.6 0.2 0
22 0.2 0
22.4 0.2 0
22.8 0.2 0
23.2 0.2 0
23.6 0.2 0
24 0.2 0
24.4 0.2 0
24.8 0.2 0
25.2 0.2 0
25.6 0.2 0
26 0.2 0
26.4 0.2 0
26.8 0.2 0
27.2 0.2 0
27.6 0.2 0
28 0.2 0
28.4 0.2 0
28.8 0.2 0
29.2 0.2 0
29.6 0.2 0
30 0.2 0
30.4 0.2 0
30.8 0.2 0
31.2 0.2 0
31.6 0.2 0
32 0.2 0
32.4 0.2 0
32.8 0.2 0
33.2 0.2 0
33.6 0.2 0
34 0.2 0
34.4 0.2 0
34.8 0.2 0
35.2 0.2 0
35.6 0.2 0
36 0.2 0
36.4 0.2 0
36.8 0.2 0
37.2 0.2 0
37.6 0.2 0
38 0.2 0
38.4 0.2 0
38.8 0.2 0
39.2 0.2 0
39.6 0.2 0
40 0.2 0
40.4 0.2 0
0 0.3 0
0.4 0.3 0
0.8 0.3 0
1.2 0.3 0
1.6 0.3 0
2 0.3 0
2.4 0.3 0
2.8 0.3 0
3.2 0.3 0
3.6 0.3 0
4 0.3 0
4.4 0.3 0
4.8 0.3 0
5.2 0.3 0
5.6 0.3 0
6 0.3 0
6.4 0.3 0
6.8 0.3 0
7.2 0.3 0
7.6 0.3 0
8 0.3 0
8.4 0.3 0
8.8 0.3 0
9.2 0.3 0
9.6 0.3 0
10 0.3 0
10.4 0.3 0
10.8 0.3 0
11.2 0.3 0
11.6 0.3 0
12 0.3 0
12.4 0.3 0
12.8 0.3 0
13.2 0.3 0
13.6 0.3 0
14 0.3 0
14.4 0.3 0
14.8 0.3 0
15.2 0.3 0
15.6 0.3 0
16 0.3 0
16.4 0.3 0
16.8 0.3 0
17.2 0.3 0
17.6 0.3 0
18 0.3 0
18.4 0.3 0
18.8 0.3 0
19.2 0.3 0
19.6 0.3 0
20 0.3 0
20.4 0.3 0
20.8 0.3 0
21.2 0.3 0
21.6 0.3 0
22 0.3 0
22.4 0.3 0
22.8 0.3 0
23.2 0.3 0
23.6 0.3 0
24 0.3 0
24.4 0.3 0
24.8 0.3 0
25.2 0.3 0
25.6 0.3 0
26 0.3 0
26.4 0.3 0
26.8 0.3 0
27.2 0.3 0
27.6 0.3 0
28 0.3 0
28.4 0.3 0
28.8 0.3 0
29.2 0.3 0
29.6 0.3 0
30 0.3 0
30.4 0.3 0
30.8 0.3 0
31.2 0.3 0
31.6 0.3 0
32 0.3 0
32.4 0.3 0
32.8 0.3 0
33.2 0.3 0
33.6 0.3 0
34 0.3 0
34.4 0.3 0
34.8 0.3 0
35.2 0.3 0
35.6 0.3 0
36 0.3 0
36.4 0.3 0
36.8 0.3 0
37.2 0.3 0
37.6 0.3 0
38 0.3 0
38.4 0.3 0
38.8 0.3 0
39.2 0.3 0
39.6 0.3 0
40 0.3 0
40.4 0.3 0
0 0.4 0
0.4 0.4 0
0.8 0.4 0
1.2 0.4 0
1.6 0.4 0
2 0.4 0
2.4 0.4 0
2.8 0.4 0
3.2 0.4 0
3.6 0.4 0
4 0.4 0
4.4 0.4 0
4.8 0.4 0
5.2 0.4 0
5.6 0.4 0
6 0.4 0
6.4 0.4 0
6.8 0.4 0
7.2 0.4 0
7.6 0.4 0
8 0.4 0
8.4 0.4 0
8.8 0.4 0
9.2 0.4 0
9.6 0.4 0
10 0.4 0
10.4 0.4 0
10.8 0.4 0
11.2 0.4 0
11.6 0.4 0
12 0.4 0
12.4 0.4 0
12.8 0.4 0
13.2 0.4 0
13.6 0.4 0
14 0.4 0
14.4 0.4 0
14.8 0.4 0
15.2 0.4 0
15.6 0.4 0
16 0.4 0
16.4 0.4 0
16.8 0.4 0
17.2 0.4 0
17.6 0.4 0
18 0.4 0
18.4 0.4 0
18.8 0.4 0
19.2 0.4 0
19.6 0.4 0
20 0.4 0
20.4 0.4 0
20.8 0.4 0
21.2 0.4 0
21.6 0.4 0
22 0.4 0
22.4 0.4 0
22.8 0.4 0
23.2 0.4 0
23.6 0.4 0
24 0.4 0
24.4 0.4 0
24.8 0.4 0
25.2 0.4 0
25.6 0.4 0
26 0.4 0
26.4 0.4 0
26.8 0.4 0
27.2 0.4 0
27.6 0.4 0
28 0.4 0
28.4 0.4 0
28.8 0.4 0
29.2 0.4 0
29.6 0.4 0
30 0.4 0
30.4 0.4 0
30.8 0.4 0
31.2 0.4 0
31.6 0.4 0
32 0.4 0
32.4 0.4 0
32.8 0.4 0
33.2 0.4 0
33.6 0.4 0
34 0.4 0
34.4 0.4 0
34.8 0.4 0
35.2 0.4 0
35.6 0.4 0
36 0.4 0
36.4 0.4 0
36.8 0.4 0
37.2 0.4 0
37.6 0.4 0
38 0.4 0
38.4 0.4 0
38.8 0.4 0
39.2 0.4 0
39.6 0.4 0
40 0.4 0
40.4 0.4 0
0 0.5 0
0.4 0.5 0
0.8 0.5 0
1.2 0.5 0
1.6 0.5 0
2 0.5 0
2.4 0.5 0
2.8 0.5 0
3.2 0.5 0
3.6 0.5 0
4 0.5 0
4.4 0.5 0
4.8 0.5 0
5.2 0.5 0
5.6 0.5 0
6 0.5 0
6.4 0.5 0
6.8 0.5 0
7.2 0.5 0
7.6 0.5 0
8 0.5 0
8.4 0.5 0
8.8 0.5 0
9.2 0.5 0
9.6 0.5 0
10 0.5 0
10.4 0.5 0
10.8 0.5 0
11.2 0.5 0
11.6 0.5 0
12 0.5 0
12.4 0.5 0
12.8 0.5 0
13.2 0.5 0
13.6 0.5 0
14 0.5 0
14.4 0.5 0
14.8 0.5 0
15.2 0.5 0
15.6 0.5 0
16 0.5 0
16.4 0.5 0
16.8 0.5 0
17.2 0.5 0
17.6 0.5 0
18 0.5 0
18.4 0.5 0
18.8 0.5 0
19.2 0.5 0
19.6 0.5 0
20 0.5 0
20.4 0.5 0
20.8 0.5 0
21.2 0.5 0
21.6 0.5 0
22 0.5 0
22.4 0.5 0
22.8 0.5 0
23.2 0.5 0
23.6 0.5 0
24 0.5 0
24.4 0.5 0
24.8 0.5 0
25.2 0.5 0
25.6 0.5 0
26 0.5 0
26.4 0.5 0
26.8 0.5 0
27.2 0.5 0
27.6 0.5 0
28 0.5 0
28.4 0.5 0
28.8 0.5 0
29.2 0.5 0
29.6 0.5 0
30 0.5 0
30.4 0.5 0
30.8 0.5 0
31.2 0.5 0
31.6 0.5 0
32 0.5 0
32.4 0.5 0
32.8 0.5 0
33.2 0.5 0
33.6 0.5 0
34 0.5 0
34.4 0.5 0
34.8 0.5 0
35.2 0.5 0
35.6 0.5 0
36 0.5 0
36.4 0.5 0
36.8 0.5 0
37.2 0.5 0
37.6 0.5 0
38 0.5 0
38.4 0.5 0
38.8 0.5 0
39.2 0.5 0
39.6 0.5 0
40 0.5 0
40.4 0.5 0
0 0.6 0
0.4 0.6 0
0.8 0.6 0
1.2 0.6 0
1.6 0.6 0
2 0.6 0
2.4 0.6 0
2.8 0.6 0
3.2 0.6 0
3.6 0.6 0
4 0.6 0
4.4 0.6 0
4.8 0.6 0
5.2 0.6 0
5.6 0.6 0
6 0.6 0
6.4 0.6 0
6.8 0.6 0
7.2 0.6 0
7.6 0.6 0
8 0.6 0
8.4 0.6 0
8.8 0.6 0
9.2 0.6 0
9.6 0.6 0
10 0.6 0
10.4 0.6 0
10.8 0.6 0
11.2 0.6 0
11.6 0.6 0
12 0.6 0
12.4 0.6 0
12.8 0.6 0
13.2 0.6 0
13.6 0.6 0
14 0.6 0
14.4 0.6 0
14.8 0.6 0
15.2 0.6 0
15.6 0.6 0
16 0.6 0
16.4 0.6 0
16.8 0.6 0
17.2 0.6 0
17.6 0.6 0
18 0.6 0
18.4 0.6 0
18.8 0.6 0
19.2 0.6 0
19.6 0.6 0
20 0.6 0
20.4 0.6 0
20.8 0.6 0
21.2 0.6 0
21.6 0.6 0
22 0.6 0
22.4 0.6 0
22.8 0.6 0
23.2 0.6 0
23.6 0.6 0
24 0.6 0
24.4 0.6 0
24.8 0.6 0
25.2 0.6 0
25.6 0.6 0
26 0.6 0
26.4 0.6 0
26.8 0.6 0
27.2 0.6 0
27.6 0.6 0
28 0.6 0
28.4 0.6 0
28.8 0.6 0
29.2 0.6 0
29.6 0.6 0
30 0.6 0
30.4 0.6 0
30.8 0.6 0
31.2 0.6 0
31.6 0.6 0
32 0.6 0
32.4 0.6 0
32.8 0.6 0
33.2 0.6 0
33.6 0.6 0
34 0.6 0
34.4 0.6 0
34.8 0.6 0
35.2 0.6 0
35.6 0.6 0
36 0.6 0
36.4 0.6 0
36.8 0.6 0
37.2 0.6 0
37.6 0.6 0
38 0.6 0
38.4 0.6 0
38.8 0.6 0
39.2 0.6 0
39.6 0.6 0
40 0.6 0
40.4 0.6 0
0 0.7 0
0.4 0.7 0
0.8 0.7 0
1.2 0.7 0
1.6 0.7 0
2 0.7 0
2.4 0.7 0
2.8 0.7 0
3.2 0.7 0
3.6 0.7 0
4 0.7 0
4.4 0.7 0
4.8 0.7 0
5.2 0.7 0
5.6 0.7 0
6 0.7 0
6.4 0.7 0
6.8 0.7 0
7.2 0.7 0
7.6 0.7 0
8 0.7 0
8.4 0.7 0
8.8 0.7 0
9.2 0.7 0
9.6 0.7 0
10 0.7 0
10.4 0.7 0
10.8 0.7 0
11.2 0.7 0
11.6 0.7 0
12 0.7 0
12.4 0.7 0
12.8 0.7 0
13.2 0.7 0
13.6 0.7 0
14 0.7 0
14.4 0.7 0
14.8 0.7 0
15.2 0.7 0
15.6 0.7 0
16 0.7 0
16.4 0.7 0
16.8 0.7 0
17.2 0.7 0
17.6 0.7 0
18 0.7 0
18.4 0.7 0
18.8 0.7 0
19.2 0.7 0
19.6 0.7 0
20 0.7 0
20.4 0.7 0
20.8 0.7 0
21.2 0.7 0
21.6 0.7 0
22 0.7 0
22.4 0.7 0
22.8 0.7 0
23.2 0.7 0
23.6 0.7 0
24 0.7 0
24.4 0.7 0
24.8 0.7 0
25.2 0.7 0
25.6 0.7 0
26 0.7 0
26.4 0.7 0
26.8 0.7 0
27.2 0.7 0
27.6 0.7 0
28 0.7 0
28.4 0.7 0
28.8 0.7 0
29.2 0.7 0
29.6 0.7 0
30 0.7 0
30.4 0.7 0
30.8 0.7 0
31.2 0.7 0
31.6 0.7 0
32 0.7 0
32.4 0.7 0
32.8 0.7 0
33.2 0.7 0
33.6 0.7 0
34 0.7 0
34.4 0.7 0
34.8 0.7 0
35.2 0.7 0
35.6 0.7 0
36 0.7 0
36.4 0.7 0
36.8 0.7 0
37.2 0.7 0
37.6 0.7 0
38 0.7 0
38.4 0.7 0
38.8 0.7 0
39.2 0.7 0
39.6 0.7 0
40 0.7 0
40.4 0.7 0
0 0.8 0
0.4 0.8 0
0.8 0.8 0
1.2 0.8 0
1.6 0.8 0
2 0.8 0
2.4 0.8 0
2.8 0.8 0
3.2 0.8 0
3.6 0.8 0
4 0.8 0
4.4 0.8 0
4.8 0.8 0
5.2 0.8 0
5.6 0.8 0
6 0.8 0
6.4 0.8 0
6.8 0.8 0
7.2 0.8 0
7.6 0.8 0
8 0.8 0
8.4 0.8 0
8.8 0.8 0
9.2 0.8 0
9.6 0.8 0
10 0.8 0
10.4 0.8 0
10.8 0.8 0
11.2 0.8 0
11.6 0.8 0
12 0.8 0
12.4 0.8 0
12.8 0.8 0
13.2 0.8 0
13.6 0.8 0
14 0.8 0
14.4 0.8 0
14.8 0.8 0
15.2 0.8 0
15.6 0.8 0
16 0.8 0
16.4 0.8 0
16.8 0.8 0
17.2 0.8 0
17.6 0.8 0
18 0.8 0
18.4 0.8 0
18.8 0.8 0
19.2 0.8 0
19.6 0.8 0
20 0.8 0
20.4 0.8 0
20.8 0.8 0
21.2 0.8 0
21.6 0.8 0
22 0.8 0
22.4 0.8 0
22.8 0.8 0
23.2 0.8 0
23.6 0.8 0
24 0.8 0
24.4 0.8 0
24.8 0.8 0
25.2 0.8 0
25.6 0.8 0
26 0.8 0
26.4 0.8 0
26.8 0.8 0
27.2 0.8 0
27.6 0.8 0
28 0.8 0
28.4 0.8 0
28.8 0.8 0
29.2 0.8 0
29.6 0.8 0
30 0.8 0
30.4 0.8 0
30.8 0.8 0
31.2 0.8 0
31.6 0.8 0
32 0.8 0
32.4 0.8 0
32.8 0.8 0
33.2 0.8 0
33.6 0.8 0
34 0.8 0
34.4 0.8 0
34.8 0.8 0
35.2 0.8 0
35.6 0.8 0
36 0.8 0
36.4 0.8 0
36.8 0.8 0
37.2 0.8 0
37.6 0.8 0
38 0.8 0
38.4 0.8 0
38.8 0.8 0
39.2 0.8 0
39.6 0.8 0
40 0.8 0
40.4 0.8 0
0 0.9 0
0.4 0.9 0
0.8 0.9 0
1.2 0.9 0
1.6 0.9 0
2 0.9 0
2.4 0.9 0
2.8 0.9 0
3.2 0.9 0
3.6 0.9 0
4 0.9 0
4.4 0.9 0
4.8 0.9 0
5.2 0.9 0
5.6 0.9 0
6 0.9 0
6.4 0.9 0
6.8 0.9 0
7.2 0.9 0
7.6 0.9 0
8 0.9 0
8.4 0.9 0
8.8 0.9 0
9.2 0.9 0
9.6 0.9 0
10 0.9 0
10.4 0.9 0
10.8 0.9 0
11.2 0.9 0
11.6 0.9 0
12 0.9 0
12.4 0.9 0
12.8 0.9 0
13.2 0.9 0
13.6 0.9 0
14 0.9 0
14.4 0.9 0
14.8 0.9 0
15.2 0.9 0
15.6 0.9 0
16 0.9 0
16.4 0.9 0
16.8 0.9 0
17.2 0.9 0
17.6 0.9 0
18 0.9 0
18.4 0.9 0
18.8 0.9 0
19.2 0.9 0
19.6 0.9 0
20 0.9 0
20.4 0.9 0
20.8 0.9 0
21.2 0.9 0
21.6 0.9 0
22 0.9 0
22.4 0.9 0
22.8 0.9 0
23.2 0.9 0
23.6 0.9 0
24 0.9 0
24.4 0.9 0
24.8 0.9 0
25.2 0.9 0
25.6 0.9 0
26 0.9 0
26.4 0.9 0
26.8 0.9 0
27.2 0.9 0
27.6 0.9 0
28 0.9 0
28.4 0.9 0
28.8 0.9 0
29.2 0.9 0
29.6 0.9 0
30 0.9 0
30.4 0.9 0
30.8 0.9 0
31.2 0.9 0
31.6 0.9 0
32 0.9 0
32.4 0.9 0
32.8 0.9 0
33.2 0.9 0
33.6 0.9 0
34 0.9 0
34.4 0.9 0
34.8 0.9 0
35.2 0.9 0
35.6 0.9 0
36 0.9 0
36.4 0.9 0
36.8 0.9 0
37.2 0.9 0
37.6 0.9 0
38 0.9 0
38.4 0.9 0
38.8 0.9 0
39.2 0.9 0
39.6 0.9 0
40 0.9 0
40.4 0.9 0
0 1 0
0.4 1 0
0.8 1 0
1.2 1 0
1.6 1 0
2 1 0
2.4 1 0
2.8 1 0
3.2 1 0
3.6 1 0
4 1 0
4.4 1 0
4.8 1 0
5.2 1 0
5.6 1 0
6 1 0
6.4 1 0
6.8 1 0
7.2 1 0
7.6 1 0
8 1 0
8.4 1 0
8.8 1 0
9.2 1 0
9.6 1 0
10 1 0
10.4 1 0
10.8 1 0
11.2 1 0
11.6 1 0
12 1 0
12.4 1 0
12.8 1 0
13.2 1 0
13.6 1 0
14 1 0
14.4 1 0
14.8 1 0
15.2 1 0
15.6 1 0
16 1 0
16.4 1 0
16.8 1 0
17.2 1 0
17.6 1 0
18 1 0
18.4 1 0
18.8 1 0
19.2 1 0
19.6 1 0
20 1 0
20.4 1 0
20.8 1 0
21.2 1 0
21.6 1 0
22 1 0
22.4 1 0
22.8 1 0
23.2 1 0
23.6 1 0
24 1 0
24.4 1 0
24.8 1 0
25.2 1 0
25.6 1 0
26 1 0
26.4 1 0
26.8 1 0
27.2 1 0
27.6 1 0
28 1 0
28.4 1 0
28.8 1 0
29.2 1 0
29.6 1 0
30 1 0
30.4 1 0
30.8 1 0
31.2 1 0
31.6 1 0
32 1 0
32.4 1 0
32.8 1 0
33.2 1 0
33.6 1 0
34 1 0
34.4 1 0
34.8 1 0
35.2 1 0
35.6 1 0
36 1 0
36.4 1 0
36.8 1 0
37.2 1 0
37.6 1 0
38 1 0
38.4 1 0
38.8 1 0
39.2 1 0
39.6 1 0
40 1 0
40.4 1 0
0 1.1 0
0.4 1.1 0
0.8 1.1 0
1.2 1.1 0
1.6 1.1 0
2 1.1 0
2.4 1.1 0
2.8 1.1 0
3.2 1.1 0
3.6 1.1 0
4 1.1 0
4.4 1.1 0
4.8 1.1 0
5.2 1.1 0
5.6 1.1 0
6 1.1 0
6.4 1.1 0
6.8 1.1 0
7.2 1.1 0
7.6 1.1 0
8 1.1 0
8.4 1.1 0
8.8 1.1 0
9.2 1.1 0
9.6 1.1 0
10 1.1 0
10.4 1.1 0
10.8 1.1 0
11.2 1.1 0
11.6 1.1 0
12 1.1 0
12.4 1.1 0
12.8 1.1 0
13.2 1.1 0
13.6 1.1 0
14 1.1 0
14.4 1.1 0
14.8 1.1 0
15.2 1.1 0
15.6 1.1 0
16 1.1 0
16.4 1.1 0
16.8 1.1 0
17.2 1.1 0
17.6 1.1 0
18 1.1 0
18.4 1.1 0
18.8 1.1 0
19.2 1.1 0
19.6 1.1 0
20 1.1 0
20.4 1.1 0
20.8 1.1 0
21.2 1.1 0
21.6 1.1 0
22 1.1 0
22.4 1.1 0
22.8 1.1 0
23.2 1.1 0
23.6 1.1 0
24 1.1 0
24.4 1.1 0
24.8 1.1 0
25.2 1.1 0
25.6 1.1 0
26 1.1 0
26.4 1.1 0
26.8 1.1 0
27.2 1.1 0
27.6 1.1 0
28 1.1 0
28.4 1.1 0
28.8 1.1 0
29.2 1.1 0
29.6 1.1 0
30 1.1 0
30.4 1.1 0
30.8 1.1 0
31.2 1.1 0
31.6 1.1 0
32 1.1 0
32.4 1.1 0
32.8 1.1 0
33.2 1.1 0
33.6 1.1 0
34 1.1 0
34.4 1.1 0
34.8 1.1 0
35.2 1.1 0
35.6 1.1 0
36 1.1 0
36.4 1.1 0
36.8 1.1 0
37.2 1.1 0
37.6 1.1 0
38 1.1 0
38.4 1.1 0
38.8 1.1 0
39.2 1.1 0
39.6 1.1 0
40 1.1 0
40.4 1.1 0

POINT_DATA 1224

SCALARS p double
LOOKUP_TABLE default
3.2342
3.2342
3.09922
2.99437
2.91102
2.8448
2.7894
2.74042
2.69555
2.65365
2.61407
2.57634
2.54003
2.50475
2.47015
2.43597
2.40202
2.3682
2.33443
2.30069
2.26696
2.23323
2.19951
2.16578
2.13205
2.09832
2.0646
2.03087
1.99714
1.96342
1.92969
1.89596
1.86223
1.82851
1.79478
1.76105
1.72733
1.6936
1.65987
1.62615
1.59242
1.55869
1.52496
1.49124
1.45751
1.42378
1.39006
1.35633
1.3226
1.28887
1.25515
1.22142
1.18769
1.15397
1.12024
1.08651
1.05279
1.01906
0.985332
0.951605
0.917878
0.884151
0.850424
0.816697
0.78297
0.749244
0.715517
0.68179
0.648063
0.614336
0.580609
0.546882
0.513155
0.479428
0.445701
0.411974
0.378248
0.344521
0.310794
0.277067
0.24334
0.209613
0.175886
0.142159
0.108432
0.0747055
0.0409786
0.00725167
-0.0264752
-0.0602021
-0.093929
-0.127656
-0.161383
-0.19511
-0.228837
-0.262563
-0.296291
-0.330016
-0.363746
-0.397466
-0.431144
0.431144
3.2342
3.2342
3.09922
2.99437
2.91102
2.8448
2.7894
2.74042
2.69555
2.65365
2.61407
2.57634
2.54003
2.50475
2.47015
2.43597
2.40202
2.3682
2.33443
2.30069
2.26696
2.23323
2.19951
2.16578
2.13205
2.09832
2.0646
2.03087
1.99714
1.96342
1.92969
1.89596
1.86223
1.82851
1.79478
1.76105
1.72733
1.6936
1.65987
1.62615
1.59242
1.55869
1.52496
1.49124
1.45751
1.42378
1.39006
1.35633
1.3226
1.28887
1.25515
1.22142
1.18769
1.15397
1.12024
1.08651
1.05279
1.01906
0.985332
0.951605
0.917878
0.884151
0.850424
0.816697
0.78297
0.749244
0.715517
0.68179
0.648063
0.614336
0.580609
0.546882
0.513155
0.479428
0.445701
0.411974
0.378248
0.344521
0.310794
0.277067
0.24334
0.209613
0.175886
0.142159
0.108432
0.0747055
0.0409786
0.00725167
-0.0264752
-0.0602021
-0.093929
-0.127656
-0.161383
-0.19511
-0.228837
-0.262563
-0.296291
-0.330016
-0.363746
-0.397466
-0.431144
0.431144
3.21124
3.21124
3.09988
2.99651
2.91268
2.84583
2.78999
2.74077
2.69577
2.65378
2.61415
2.57638
2.54005
2.50475
2.47015
2.43597
2.40202
2.3682
2.33443
2.30069
2.26696
2.23323
2.19951
2.16578
2.13205
2.09832
2.0646
2.03087
1.99714
1.96342
1.92969
1.89596
1.86223
1.82851
1.79478
1.76105
1.72733
1.6936
1.65987
1.62615
1.59242
1.55869
1.52496
1.49124
1.45751
1.42378
1.39006
1.35633
1.3226
1.28887
1.25515
1.22142
1.18769
1.15397
1.12024
1.08651
1.05279
1.01906
0.985332
0.951605
0.917878
0.884151
0.850424
0.816697
0.78297
0.749244
0.715517
0.68179
0.648063
0.614336
0.580609
0.546882
0.513155
0.479428
0.445701
0.411974
0.378248
0.344521
0.310794
0.277067
0.24334
0.209613
0.175886
0.142159
0.108432
0.0747055
0.0409786
0.00725166
-0.0264752
-0.0602021
-0.093929
-0.127656
-0.161383
-0.19511
-0.228837
-0.262563
-0.296291
-0.330016
-0.363746
-0.397467
-0.431145
0.431145
3.19944
3.19944
3.10077
2.99982
2.91535
2.84744
2.79087
2.74125
2.69604
2.65395
2.61425
2.57644
2.54008
2.50477
2.47016
2.43597
2.40202
2.3682
2.33443
2.30069
2.26696
2.23323
2.19951
2.16578
2.13205
2.09832
2.0646
2.03087
1.99714
1.96342
1.92969
1.89596
1.86223
1.82851
1.79478
1.76105
1.72733
1.6936
1.65987
1.62615
1.59242
1.55869
1.52496
1.49124
1.45751
1.42378
1.39006
1.35633
1.3226
1.28887
1.25515
1.22142
1.18769
1.15397
1.12024
1.08651
1.05279
1.01906
0.985332
0.951605
0.917878
0.884151
0.850424
0.816697
0.78297
0.749244
0.715517
0.68179
0.648063
0.614336
0.580609
0.546882
0.513155
0.479428
0.445701
0.411974
0.378248
0.344521
0.310794
0.277067
0.24334
0.209613
0.175886
0.142159
0.108432
0.0747055
0.0409786
0.00725166
-0.0264752
-0.0602021
-0.093929
-0.127656
-0.161383
-0.19511
-0.228837
-0.262563
-0.296291
-0.330016
-0.363744
-0.397457
-0.431142
0.431142
3.1926
3.1926
3.10157
3.00266
2.9178
2.84901
2.79178
2.74178
2.69638
2.65417
2.6144
2.57654
2.54015
2.50481
2.47018
2.43598
2.40203
2.3682
2.33443
2.30069
2.26696
2.23323
2.19951
2.16578
2.13205
2.09832
2.0646
2.03087
1.99714
1.96342
1.92969
1.89596
1.86223
1.82851
1.79478
1.76105
1.72733
1.6936
1.65987
1.62615
1.59242
1.55869
1.52496
1.49124
1.45751
1.42378
1.39006
1.35633
1.3226
1.28887
1.25515
1.22142
1.18769
1.15397
1.12024
1.08651
1.05279
1.01906
0.985332
0.951605
0.917878
0.884151
0.850424
0.816697
0.78297
0.749244
0.715517
0.68179
0.648063
0.614336
0.580609
0.546882
0.513155
0.479428
0.445701
0.411974
0.378248
0.344521
0.310794
0.277067
0.24334
0.209613
0.175886
0.142159
0.108432
0.0747055
0.0409786
0.00725166
-0.0264752
-0.0602021
-0.093929
-0.127656
-0.161383
-0.19511
-0.228837
-0.262563
-0.29629
-0.330016
-0.363741
-0.397437
-0.431137
0.431137
3.1893
3.1893
3.10203
3.00423
2.91919
2.84994
2.79234
2.74213
2.6966
2.65433
2.61452
2.57662
2.5402
2.50485
2.4702
2.43599
2.40203
2.3682
2.33444
2.30069
2.26696
2.23323
2.19951
2.16578
2.13205
2.09832
2.0646
2.03087
1.99714
1.96342
1.92969
1.89596
1.86223
1.82851
1.79478
1.76105
1.72733
1.6936
1.65987
1.62615
1.59242
1.55869
1.52496
1.49124
1.45751
1.42378
1.39006
1.35633
1.3226
1.28887
1.25515
1.22142
1.18769
1.15397
1.12024
1.08651
1.05279
1.01906
0.985332
0.951605
0.917878
0.884151
0.850424
0.816697
0.78297
0.749244
0.715517
0.68179
0.648063
0.614336
0.580609
0.546882
0.513155
0.479428
0.445701
0.411974
0.378248
0.344521
0.310794
0.277067
0.24334
0.209613
0.175886
0.142159
0.108432
0.0747055
0.0409786
0.00725166
-0.0264752
-0.0602021
-0.093929
-0.127656
-0.161383
-0.19511
-0.228837
-0.262563
-0.29629
-0.330016
-0.363739
-0.397421
-0.431132
0.431132
3.1893
3.1893
3.10203
3.00423
2.91919
2.84994
2.79234
2.74213
2.6966
2.65433
2.61452
2.57662
2.5402
2.50485
2.4702
2.43599
2.40203
2.3682
2.33444
2.30069
2.26696
2.23323
2.19951
2.16578
2.13205
2.09832
2.0646
2.03087
1.99714
1.96342
1.92969
1.89596
1.86223
1.82851
1.79478
1.76105
1.72733
1.6936
1.65987
1.62615
1.59242
1.55869
1.52496
1.49124
1.45751
1.42378
1.39006
1.35633
1.3226
1.28887
1.25515
1.22142
1.18769
1.15397
1.12024
1.08651
1.05279
1.01906
0.985332
0.951605
0.917878
0.884151
0.850424
0.816697
0.78297
0.749244
0.715517
0.68179
0.648063
0.614336
0.580609
0.546882
0.513155
0.479428
0.445701
0.411974
0.378248
0.344521
0.310794
0.277067
0.24334
0.209613
0.175886
0.142159
0.108432
0.0747055
0.0409786
0.00725166
-0.0264752
-0.0602021
-0.093929
-0.127656
-0.161383
-0.19511
-0.228837
-0.262563
-0.29629
-0.330016
-0.363739
-0.397421
-0.431132
0.431132
3.1926
3.1926
3.10157
3.00266
2.9178
2.84901
2.79178
2.74178
2.69638
2.65417
2.6144
2.57654
2.54015
2.50481
2.47018
2.43598
2.40203
2.3682
2.33443
2.30069
2.26696
2.23323
2.19951
2.16578
2.13205
2.09832
2.0646
2.03087
1.99714
1.96342
1.92969
1.89596
1.86223
1.82851
1.79478
1.76105
1.72733
1.6936
1.65987
1.62615
1.59242
1.55869
1.52496
1.49124
1.45751
1.42378
1.39006
1.35633
1.3226
1.28887
1.25515
1.22142
1.18769
1.15397
1.12024
1.08651
1.05279
1.01906
0.985332
0.951605
0.917878
0.884151
0.850424
0.816697
0.78297
0.749244
0.715517
0.68179
0.648063
0.614336
0.580609
0.546882
0.513155
0.479428
0.445701
0.411974
0.378248
0.344521
0.310794
0.277067
0.24334
0.209613
0.175886
0.142159
0.108432
0.0747055
0.0409786
0.00725166
-0.0264752
-0.0602021
-0.093929
-0.127656
-0.161383
-0.19511
-0.228837
-0.262563
-0.29629
-0.330016
-0.363741
-0.397437
-0.431137
0.431137
3.19944
3.19944
3.10077
2.99982
2.91535
2.84744
2.79087
2.74125
2.69604
2.65395
2.61425
2.57644
2.54008
2.50477
2.47016
2.43597
2.40202
2.3682
2.33443
2.30069
2.26696
2.23323
2.19951
2.16578
2.13205
2.09832
2.0646
2.03087
1.99714
1.96342
1.92969
1.89596
1.86223
1.82851
1.79478
1.76105
1.72733
1.6936
1.65987
1.62615
1.59242
1.55869
1.52496
1.49124
1.45751
1.42378
1.39006
1.35633
1.3226
1.28887
1.25515
1.22142
1.18769
1.15397
1.12024
1.08651
1.05279
1.01906
0.985332
0.951605
0.917878
0.884151
0.850424
0.816697
0.78297
0.749244
0.715517
0.68179
0.648063
0.614336
0.580609
0.546882
0.513155
0.479428
0.445701
0.411974
0.378248
0.344521
0.310794
0.277067
0.24334
0.209613
0.175886
0.142159
0.108432
0.0747055
0.0409786
0.00725166
-0.0264752
-0.0602021
-0.093929
-0.127656
-0.161383
-0.19511
-0.228837
-0.262563
-0.296291
-0.330016
-0.363744
-0.397457
-0.431142
0.431142
3.21124
3.21124
3.09988
2.99651
2.91268
2.84583
2.78999
2.74077
2.69577
2.65378
2.61415
2.57638
2.54005
2.50475
2.47015
2.43597
2.40202
2.3682
2.33443
2.30069
2.26696
2.23323
2.19951
2.16578
2.13205
2.09832
2.0646
2.03087
1.99714
1.96342
1.92969
1.89596
1.86223
1.82851
1.79478
1.76105
1.72733
1.6936
1.65987
1.62615
1.59242
1.55869
1.52496
1.49124
1.45751
1.42378
1.39006
1.35633
1.3226
1.28887
1.25515
1.22142
1.18769
1.15397
1.12024
1.08651
1.05279
1.01906
0.985332
0.951605
0.917878
0.884151
0.850424
0.816697
0.78297
0.749244
0.715517
0.68179
0.648063
0.614336
0.580609
0.546882
0.513155
0.479428
0.445701
0.411974
0.378248
0.344521
0.310794
0.277067
0.24334
0.209613
0.175886
0.142159
0.108432
0.0747055
0.0409786
0.00725167
-0.0264752
-0.0602021
-0.093929
-0.127656
-0.161383
-0.19511
-0.228837
-0.262563
-0.296291
-0.330016
-0.363746
-0.397467
-0.431145
0.431145
3.2342
3.2342
3.09922
2.99437
2.91102
2.8448
2.7894
2.74042
2.69555
2.65365
2.61407
2.57634
2.54003
2.50475
2.47015
2.43597
2.40202
2.3682
2.33443
2.30069
2.26696
2.23323
2.19951
2.16578
2.13205
2.09832
2.0646
2.03087
1.99714
1.96342
1.92969
1.89596
1.86223
1.82851
1.79478
1.76105
1.72733
1.6936
1.65987
1.62615
1.59242
1.55869
1.52496
1.49124
1.45751
1.42378
1.39006
1.35633
1.3226
1.28887
1.25515
1.22142
1.18769
1.15397
1.12024
1.08651
1.05279
1.01906
0.985332
0.951605
0.917878
0.884151
0.850424
0.816697
0.78297
0.749244
0.715517
0.68179
0.648063
0.614336
0.580609
0.546882
0.513155
0.479428
0.445701
0.411974
0.378248
0.344521
0.310794
0.277067
0.24334
0.209613
0.175886
0.142159
0.108432
0.0747055
0.0409786
0.00725166
-0.0264752
-0.0602021
-0.093929
-0.127656
-0.161383
-0.19511
-0.228837
-0.262563
-0.296291
-0.330016
-0.363746
-0.397466
-0.431144
0.431144
3.2342
3.2342
3.09922
2.99437
2.91102
2.8448
2.7894
2.74042
2.69555
2.65365
2.61407
2.57634
2.54003
2.50475
2.47015
2.43597
2.40202
2.3682
2.33443
2.30069
2.26696
2.23323
2.19951
2.16578
2.13205
2.09832
2.0646
2.03087
1.99714
1.96342
1.92969
1.89596
1.86223
1.82851
1.79478
1.76105
1.72733
1.6936
1.65987
1.62615
1.59242
1.55869
1.52496
1.49124
1.45751
1.42378
1.39006
1.35633
1.3226
1.28887
1.25515
1.22142
1.18769
1.15397
1.12024
1.08651
1.05279
1.01906
0.985332
0.951605
0.917878
0.884151
0.850424
0.816697
0.78297
0.749244
0.715517
0.68179
0.648063
0.614336
0.580609
0.546882
0.513155
0.479428
0.445701
0.411974
0.378248
0.344521
0.310794
0.277067
0.24334
0.209613
0.175886
0.142159
0.108432
0.0747055
0.0409786
0.00725166
-0.0264752
-0.0602021
-0.093929
-0.127656
-0.161383
-0.19511
-0.228837
-0.262563
-0.296291
-0.330016
-0.363746
-0.397466
-0.431144
0.431144
