# vtk DataFile Version 2.0
FlowField
ASCII
DATASET STRUCTURED_GRID
DIMENSIONS 102 1 12 
POINTS 1224 double
0 0 0
0.4 0 0
0.8 0 0
1.2 0 0
1.6 0 0
2 0 0
2.4 0 0
2.8 0 0
3.2 0 0
3.6 0 0
4 0 0
4.4 0 0
4.8 0 0
5.2 0 0
5.6 0 0
6 0 0
6.4 0 0
6.8 0 0
7.2 0 0
7.6 0 0
8 0 0
8.4 0 0
8.8 0 0
9.2 0 0
9.6 0 0
10 0 0
10.4 0 0
10.8 0 0
11.2 0 0
11.6 0 0
12 0 0
12.4 0 0
12.8 0 0
13.2 0 0
13.6 0 0
14 0 0
14.4 0 0
14.8 0 0
15.2 0 0
15.6 0 0
16 0 0
16.4 0 0
16.8 0 0
17.2 0 0
17.6 0 0
18 0 0
18.4 0 0
18.8 0 0
19.2 0 0
19.6 0 0
20 0 0
20.4 0 0
20.8 0 0
21.2 0 0
21.6 0 0
22 0 0
22.4 0 0
22.8 0 0
23.2 0 0
23.6 0 0
24 0 0
24.4 0 0
24.8 0 0
25.2 0 0
25.6 0 0
26 0 0
26.4 0 0
26.8 0 0
27.2 0 0
27.6 0 0
28 0 0
28.4 0 0
28.8 0 0
29.2 0 0
29.6 0 0
30 0 0
30.4 0 0
30.8 0 0
31.2 0 0
31.6 0 0
32 0 0
32.4 0 0
32.8 0 0
33.2 0 0
33.6 0 0
34 0 0
34.4 0 0
34.8 0 0
35.2 0 0
35.6 0 0
36 0 0
36.4 0 0
36.8 0 0
37.2 0 0
37.6 0 0
38 0 0
38.4 0 0
38.8 0 0
39.2 0 0
39.6 0 0
40 0 0
40.4 0 0
0 0.1 0
0.4 0.1 0
0.8 0.1 0
1.2 0.1 0
1.6 0.1 0
2 0.1 0
2.4 0.1 0
2.8 0.1 0
3.2 0.1 0
3.6 0.1 0
4 0.1 0
4.4 0.1 0
4.8 0.1 0
5.2 0.1 0
5.6 0.1 0
6 0.1 0
6.4 0.1 0
6.8 0.1 0
7.2 0.1 0
7.6 0.1 0
8 0.1 0
8.4 0.1 0
8.8 0.1 0
9.2 0.1 0
9.6 0.1 0
10 0.1 0
10.4 0.1 0
10.8 0.1 0
11.2 0.1 0
11.6 0.1 0
12 0.1 0
12.4 0.1 0
12.8 0.1 0
13.2 0.1 0
13.6 0.1 0
14 0.1 0
14.4 0.1 0
14.8 0.1 0
15.2 0.1 0
15.6 0.1 0
16 0.1 0
16.4 0.1 0
16.8 0.1 0
17.2 0.1 0
17.6 0.1 0
18 0.1 0
18.4 0.1 0
18.8 0.1 0
19.2 0.1 0
19.6 0.1 0
20 0.1 0
20.4 0.1 0
20.8 0.1 0
21.2 0.1 0
21.6 0.1 0
22 0.1 0
22.4 0.1 0
22.8 0.1 0
23.2 0.1 0
23.6 0.1 0
24 0.1 0
24.4 0.1 0
24.8 0.1 0
25.2 0.1 0
25.6 0.1 0
26 0.1 0
26.4 0.1 0
26.8 0.1 0
27.2 0.1 0
27.6 0.1 0
28 0.1 0
28.4 0.1 0
28.8 0.1 0
29.2 0.1 0
29.6 0.1 0
30 0.1 0
30.4 0.1 0
30.8 0.1 0
31.2 0.1 0
31.6 0.1 0
32 0.1 0
32.4 0.1 0
32.8 0.1 0
33.2 0.1 0
33.6 0.1 0
34 0.1 0
34.4 0.1 0
34.8 0.1 0
35.2 0.1 0
35.6 0.1 0
36 0.1 0
36.4 0.1 0
36.8 0.1 0
37.2 0.1 0
37.6 0.1 0
38 0.1 0
38.4 0.1 0
38.8 0.1 0
39.2 0.1 0
39.6 0.1 0
40 0.1 0
40.4 0.1 0
0 0.2 0
0.4 0.2 0
0.8 0.2 0
1.2 0.2 0
1.6 0.2 0
2 0.2 0
2.4 0.2 0
2.8 0.2 0
3.2 0.2 0
3.6 0.2 0
4 0.2 0
4.4 0.2 0
4.8 0.2 0
5.2 0.2 0
5.6 0.2 0
6 0.2 0
6.4 0.2 0
6.8 0.2 0
7.2 0.2 0
7.6 0.2 0
8 0.2 0
8.4 0.2 0
8.8 0.2 0
9.2 0.2 0
9.6 0.2 0
10 0.2 0
10.4 0.2 0
10.8 0.2 0
11.2 0.2 0
11.6 0.2 0
12 0.2 0
12.4 0.2 0
12.8 0.2 0
13.2 0.2 0
13.6 0.2 0
14 0.2 0
14.4 0.2 0
14.8 0.2 0
15.2 0.2 0
15.6 0.2 0
16 0.2 0
16.4 0.2 0
16.8 0.2 0
17.2 0.2 0
17.6 0.2 0
18 0.2 0
18.4 0.2 0
18.8 0.2 0
19.2 0.2 0
19.6 0.2 0
20 0.2 0
20.4 0.2 0
20.8 0.2 0
21.2 0.2 0
21.6 0.2 0
22 0.2 0
22.4 0.2 0
22.8 0.2 0
23.2 0.2 0
23.6 0.2 0
24 0.2 0
24.4 0.2 0
24.8 0.2 0
25.2 0.2 0
25.6 0.2 0
26 0.2 0
26.4 0.2 0
26.8 0.2 0
27.2 0.2 0
27.6 0.2 0
28 0.2 0
28.4 0.2 0
28.8 0.2 0
29.2 0.2 0
29.6 0.2 0
30 0.2 0
30.4 0.2 0
30.8 0.2 0
31.2 0.2 0
31.6 0.2 0
32 0.2 0
32.4 0.2 0
32.8 0.2 0
33.2 0.2 0
33.6 0.2 0
34 0.2 0
34.4 0.2 0
34.8 0.2 0
35.2 0.2 0
35.6 0.2 0
36 0.2 0
36.4 0.2 0
36.8 0.2 0
37.2 0.2 0
37.6 0.2 0
38 0.2 0
38.4 0.2 0
38.8 0.2 0
39.2 0.2 0
39.6 0.2 0
40 0.2 0
40.4 0.2 0
0 0.3 0
0.4 0.3 0
0.8 0.3 0
1.2 0.3 0
1.6 0.3 0
2 0.3 0
2.4 0.3 0
2.8 0.3 0
3.2 0.3 0
3.6 0.3 0
4 0.3 0
4.4 0.3 0
4.8 0.3 0
5.2 0.3 0
5.6 0.3 0
6 0.3 0
6.4 0.3 0
6.8 0.3 0
7.2 0.3 0
7.6 0.3 0
8 0.3 0
8.4 0.3 0
8.8 0.3 0
9.2 0.3 0
9.6 0.3 0
10 0.3 0
10.4 0.3 0
10.8 0.3 0
11.2 0.3 0
11.6 0.3 0
12 0.3 0
12.4 0.3 0
12.8 0.3 0
13.2 0.3 0
13.6 0.3 0
14 0.3 0
14.4 0.3 0
14.8 0.3 0
15.2 0.3 0
15.6 0.3 0
16 0.3 0
16.4 0.3 0
16.8 0.3 0
17.2 0.3 0
17.6 0.3 0
18 0.3 0
18.4 0.3 0
18.8 0.3 0
19.2 0.3 0
19.6 0.3 0
20 0.3 0
20.4 0.3 0
20.8 0.3 0
21.2 0.3 0
21.6 0.3 0
22 0.3 0
22.4 0.3 0
22.8 0.3 0
23.2 0.3 0
23.6 0.3 0
24 0.3 0
24.4 0.3 0
24.8 0.3 0
25.2 0.3 0
25.6 0.3 0
26 0.3 0
26.4 0.3 0
26.8 0.3 0
27.2 0.3 0
27.6 0.3 0
28 0.3 0
28.4 0.3 0
28.8 0.3 0
29.2 0.3 0
29.6 0.3 0
30 0.3 0
30.4 0.3 0
30.8 0.3 0
31.2 0.3 0
31.6 0.3 0
32 0.3 0
32.4 0.3 0
32.8 0.3 0
33.2 0.3 0
33.6 0.3 0
34 0.3 0
34.4 0.3 0
34.8 0.3 0
35.2 0.3 0
35.6 0.3 0
36 0.3 0
36.4 0.3 0
36.8 0.3 0
37.2 0.3 0
37.6 0.3 0
38 0.3 0
38.4 0.3 0
38.8 0.3 0
39.2 0.3 0
39.6 0.3 0
40 0.3 0
40.4 0.3 0
0 0.4 0
0.4 0.4 0
0.8 0.4 0
1.2 0.4 0
1.6 0.4 0
2 0.4 0
2.4 0.4 0
2.8 0.4 0
3.2 0.4 0
3.6 0.4 0
4 0.4 0
4.4 0.4 0
4.8 0.4 0
5.2 0.4 0
5.6 0.4 0
6 0.4 0
6.4 0.4 0
6.8 0.4 0
7.2 0.4 0
7.6 0.4 0
8 0.4 0
8.4 0.4 0
8.8 0.4 0
9.2 0.4 0
9.6 0.4 0
10 0.4 0
10.4 0.4 0
10.8 0.4 0
11.2 0.4 0
11.6 0.4 0
12 0.4 0
12.4 0.4 0
12.8 0.4 0
13.2 0.4 0
13.6 0.4 0
14 0.4 0
14.4 0.4 0
14.8 0.4 0
15.2 0.4 0
15.6 0.4 0
16 0.4 0
16.4 0.4 0
16.8 0.4 0
17.2 0.4 0
17.6 0.4 0
18 0.4 0
18.4 0.4 0
18.8 0.4 0
19.2 0.4 0
19.6 0.4 0
20 0.4 0
20.4 0.4 0
20.8 0.4 0
21.2 0.4 0
21.6 0.4 0
22 0.4 0
22.4 0.4 0
22.8 0.4 0
23.2 0.4 0
23.6 0.4 0
24 0.4 0
24.4 0.4 0
24.8 0.4 0
25.2 0.4 0
25.6 0.4 0
26 0.4 0
26.4 0.4 0
26.8 0.4 0
27.2 0.4 0
27.6 0.4 0
28 0.4 0
28.4 0.4 0
28.8 0.4 0
29.2 0.4 0
29.6 0.4 0
30 0.4 0
30.4 0.4 0
30.8 0.4 0
31.2 0.4 0
31.6 0.4 0
32 0.4 0
32.4 0.4 0
32.8 0.4 0
33.2 0.4 0
33.6 0.4 0
34 0.4 0
34.4 0.4 0
34.8 0.4 0
35.2 0.4 0
35.6 0.4 0
36 0.4 0
36.4 0.4 0
36.8 0.4 0
37.2 0.4 0
37.6 0.4 0
38 0.4 0
38.4 0.4 0
38.8 0.4 0
39.2 0.4 0
39.6 0.4 0
40 0.4 0
40.4 0.4 0
0 0.5 0
0.4 0.5 0
0.8 0.5 0
1.2 0.5 0
1.6 0.5 0
2 0.5 0
2.4 0.5 0
2.8 0.5 0
3.2 0.5 0
3.6 0.5 0
4 0.5 0
4.4 0.5 0
4.8 0.5 0
5.2 0.5 0
5.6 0.5 0
6 0.5 0
6.4 0.5 0
6.8 0.5 0
7.2 0.5 0
7.6 0.5 0
8 0.5 0
8.4 0.5 0
8.8 0.5 0
9.2 0.5 0
9.6 0.5 0
10 0.5 0
10.4 0.5 0
10.8 0.5 0
11.2 0.5 0
11.6 0.5 0
12 0.5 0
12.4 0.5 0
12.8 0.5 0
13.2 0.5 0
13.6 0.5 0
14 0.5 0
14.4 0.5 0
14.8 0.5 0
15.2 0.5 0
15.6 0.5 0
16 0.5 0
16.4 0.5 0
16.8 0.5 0
17.2 0.5 0
17.6 0.5 0
18 0.5 0
18.4 0.5 0
18.8 0.5 0
19.2 0.5 0
19.6 0.5 0
20 0.5 0
20.4 0.5 0
20.8 0.5 0
21.2 0.5 0
21.6 0.5 0
22 0.5 0
22.4 0.5 0
22.8 0.5 0
23.2 0.5 0
23.6 0.5 0
24 0.5 0
24.4 0.5 0
24.8 0.5 0
25.2 0.5 0
25.6 0.5 0
26 0.5 0
26.4 0.5 0
26.8 0.5 0
27.2 0.5 0
27.6 0.5 0
28 0.5 0
28.4 0.5 0
28.8 0.5 0
29.2 0.5 0
29.6 0.5 0
30 0.5 0
30.4 0.5 0
30.8 0.5 0
31.2 0.5 0
31.6 0.5 0
32 0.5 0
32.4 0.5 0
32.8 0.5 0
33.2 0.5 0
33.6 0.5 0
34 0.5 0
34.4 0.5 0
34.8 0.5 0
35.2 0.5 0
35.6 0.5 0
36 0.5 0
36.4 0.5 0
36.8 0.5 0
37.2 0.5 0
37.6 0.5 0
38 0.5 0
38.4 0.5 0
38.8 0.5 0
39.2 0.5 0
39.6 0.5 0
40 0.5 0
40.4 0.5 0
0 0.6 0
0.4 0.6 0
0.8 0.6 0
1.2 0.6 0
1.6 0.6 0
2 0.6 0
2.4 0.6 0
2.8 0.6 0
3.2 0.6 0
3.6 0.6 0
4 0.6 0
4.4 0.6 0
4.8 0.6 0
5.2 0.6 0
5.6 0.6 0
6 0.6 0
6.4 0.6 0
6.8 0.6 0
7.2 0.6 0
7.6 0.6 0
8 0.6 0
8.4 0.6 0
8.8 0.6 0
9.2 0.6 0
9.6 0.6 0
10 0.6 0
10.4 0.6 0
10.8 0.6 0
11.2 0.6 0
11.6 0.6 0
12 0.6 0
12.4 0.6 0
12.8 0.6 0
13.2 0.6 0
13.6 0.6 0
14 0.6 0
14.4 0.6 0
14.8 0.6 0
15.2 0.6 0
15.6 0.6 0
16 0.6 0
16.4 0.6 0
16.8 0.6 0
17.2 0.6 0
17.6 0.6 0
18 0.6 0
18.4 0.6 0
18.8 0.6 0
19.2 0.6 0
19.6 0.6 0
20 0.6 0
20.4 0.6 0
20.8 0.6 0
21.2 0.6 0
21.6 0.6 0
22 0.6 0
22.4 0.6 0
22.8 0.6 0
23.2 0.6 0
23.6 0.6 0
24 0.6 0
24.4 0.6 0
24.8 0.6 0
25.2 0.6 0
25.6 0.6 0
26 0.6 0
26.4 0.6 0
26.8 0.6 0
27.2 0.6 0
27.6 0.6 0
28 0.6 0
28.4 0.6 0
28.8 0.6 0
29.2 0.6 0
29.6 0.6 0
30 0.6 0
30.4 0.6 0
30.8 0.6 0
31.2 0.6 0
31.6 0.6 0
32 0.6 0
32.4 0.6 0
32.8 0.6 0
33.2 0.6 0
33.6 0.6 0
34 0.6 0
34.4 0.6 0
34.8 0.6 0
35.2 0.6 0
35.6 0.6 0
36 0.6 0
36.4 0.6 0
36.8 0.6 0
37.2 0.6 0
37.6 0.6 0
38 0.6 0
38.4 0.6 0
38.8 0.6 0
39.2 0.6 0
39.6 0.6 0
40 0.6 0
40.4 0.6 0
0 0.7 0
0.4 0.7 0
0.8 0.7 0
1.2 0.7 0
1.6 0.7 0
2 0.7 0
2.4 0.7 0
2.8 0.7 0
3.2 0.7 0
3.6 0.7 0
4 0.7 0
4.4 0.7 0
4.8 0.7 0
5.2 0.7 0
5.6 0.7 0
6 0.7 0
6.4 0.7 0
6.8 0.7 0
7.2 0.7 0
7.6 0.7 0
8 0.7 0
8.4 0.7 0
8.8 0.7 0
9.2 0.7 0
9.6 0.7 0
10 0.7 0
10.4 0.7 0
10.8 0.7 0
11.2 0.7 0
11.6 0.7 0
12 0.7 0
12.4 0.7 0
12.8 0.7 0
13.2 0.7 0
13.6 0.7 0
14 0.7 0
14.4 0.7 0
14.8 0.7 0
15.2 0.7 0
15.6 0.7 0
16 0.7 0
16.4 0.7 0
16.8 0.7 0
17.2 0.7 0
17.6 0.7 0
18 0.7 0
18.4 0.7 0
18.8 0.7 0
19.2 0.7 0
19.6 0.7 0
20 0.7 0
20.4 0.7 0
20.8 0.7 0
21.2 0.7 0
21.6 0.7 0
22 0.7 0
22.4 0.7 0
22.8 0.7 0
23.2 0.7 0
23.6 0.7 0
24 0.7 0
24.4 0.7 0
24.8 0.7 0
25.2 0.7 0
25.6 0.7 0
26 0.7 0
26.4 0.7 0
26.8 0.7 0
27.2 0.7 0
27.6 0.7 0
28 0.7 0
28.4 0.7 0
28.8 0.7 0
29.2 0.7 0
29.6 0.7 0
30 0.7 0
30.4 0.7 0
30.8 0.7 0
31.2 0.7 0
31.6 0.7 0
32 0.7 0
32.4 0.7 0
32.8 0.7 0
33.2 0.7 0
33.6 0.7 0
34 0.7 0
34.4 0.7 0
34.8 0.7 0
35.2 0.7 0
35.6 0.7 0
36 0.7 0
36.4 0.7 0
36.8 0.7 0
37.2 0.7 0
37.6 0.7 0
38 0.7 0
38.4 0.7 0
38.8 0.7 0
39.2 0.7 0
39.6 0.7 0
40 0.7 0
40.4 0.7 0
0 0.8 0
0.4 0.8 0
0.8 0.8 0
1.2 0.8 0
1.6 0.8 0
2 0.8 0
2.4 0.8 0
2.8 0.8 0
3.2 0.8 0
3.6 0.8 0
4 0.8 0
4.4 0.8 0
4.8 0.8 0
5.2 0.8 0
5.6 0.8 0
6 0.8 0
6.4 0.8 0
6.8 0.8 0
7.2 0.8 0
7.6 0.8 0
8 0.8 0
8.4 0.8 0
8.8 0.8 0
9.2 0.8 0
9.6 0.8 0
10 0.8 0
10.4 0.8 0
10.8 0.8 0
11.2 0.8 0
11.6 0.8 0
12 0.8 0
12.4 0.8 0
12.8 0.8 0
13.2 0.8 0
13.6 0.8 0
14 0.8 0
14.4 0.8 0
14.8 0.8 0
15.2 0.8 0
15.6 0.8 0
16 0.8 0
16.4 0.8 0
16.8 0.8 0
17.2 0.8 0
17.6 0.8 0
18 0.8 0
18.4 0.8 0
18.8 0.8 0
19.2 0.8 0
19.6 0.8 0
20 0.8 0
20.4 0.8 0
20.8 0.8 0
21.2 0.8 0
21.6 0.8 0
22 0.8 0
22.4 0.8 0
22.8 0.8 0
23.2 0.8 0
23.6 0.8 0
24 0.8 0
24.4 0.8 0
24.8 0.8 0
25.2 0.8 0
25.6 0.8 0
26 0.8 0
26.4 0.8 0
26.8 0.8 0
27.2 0.8 0
27.6 0.8 0
28 0.8 0
28.4 0.8 0
28.8 0.8 0
29.2 0.8 0
29.6 0.8 0
30 0.8 0
30.4 0.8 0
30.8 0.8 0
31.2 0.8 0
31.6 0.8 0
32 0.8 0
32.4 0.8 0
32.8 0.8 0
33.2 0.8 0
33.6 0.8 0
34 0.8 0
34.4 0.8 0
34.8 0.8 0
35.2 0.8 0
35.6 0.8 0
36 0.8 0
36.4 0.8 0
36.8 0.8 0
37.2 0.8 0
37.6 0.8 0
38 0.8 0
38.4 0.8 0
38.8 0.8 0
39.2 0.8 0
39.6 0.8 0
40 0.8 0
40.4 0.8 0
0 0.9 0
0.4 0.9 0
0.8 0.9 0
1.2 0.9 0
1.6 0.9 0
2 0.9 0
2.4 0.9 0
2.8 0.9 0
3.2 0.9 0
3.6 0.9 0
4 0.9 0
4.4 0.9 0
4.8 0.9 0
5.2 0.9 0
5.6 0.9 0
6 0.9 0
6.4 0.9 0
6.8 0.9 0
7.2 0.9 0
7.6 0.9 0
8 0.9 0
8.4 0.9 0
8.8 0.9 0
9.2 0.9 0
9.6 0.9 0
10 0.9 0
10.4 0.9 0
10.8 0.9 0
11.2 0.9 0
11.6 0.9 0
12 0.9 0
12.4 0.9 0
12.8 0.9 0
13.2 0.9 0
13.6 0.9 0
14 0.9 0
14.4 0.9 0
14.8 0.9 0
15.2 0.9 0
15.6 0.9 0
16 0.9 0
16.4 0.9 0
16.8 0.9 0
17.2 0.9 0
17.6 0.9 0
18 0.9 0
18.4 0.9 0
18.8 0.9 0
19.2 0.9 0
19.6 0.9 0
20 0.9 0
20.4 0.9 0
20.8 0.9 0
21.2 0.9 0
21.6 0.9 0
22 0.9 0
22.4 0.9 0
22.8 0.9 0
23.2 0.9 0
23.6 0.9 0
24 0.9 0
24.4 0.9 0
24.8 0.9 0
25.2 0.9 0
25.6 0.9 0
26 0.9 0
26.4 0.9 0
26.8 0.9 0
27.2 0.9 0
27.6 0.9 0
28 0.9 0
28.4 0.9 0
28.8 0.9 0
29.2 0.9 0
29.6 0.9 0
30 0.9 0
30.4 0.9 0
30.8 0.9 0
31.2 0.9 0
31.6 0.9 0
32 0.9 0
32.4 0.9 0
32.8 0.9 0
33.2 0.9 0
33.6 0.9 0
34 0.9 0
34.4 0.9 0
34.8 0.9 0
35.2 0.9 0
35.6 0.9 0
36 0.9 0
36.4 0.9 0
36.8 0.9 0
37.2 0.9 0
37.6 0.9 0
38 0.9 0
38.4 0.9 0
38.8 0.9 0
39.2 0.9 0
39.6 0.9 0
40 0.9 0
40.4 0.9 0
0 1 0
0.4 1 0
0.8 1 0
1.2 1 0
1.6 1 0
2 1 0
2.4 1 0
2.8 1 0
3.2 1 0
3.6 1 0
4 1 0
4.4 1 0
4.8 1 0
5.2 1 0
5.6 1 0
6 1 0
6.4 1 0
6.8 1 0
7.2 1 0
7.6 1 0
8 1 0
8.4 1 0
8.8 1 0
9.2 1 0
9.6 1 0
10 1 0
10.4 1 0
10.8 1 0
11.2 1 0
11.6 1 0
12 1 0
12.4 1 0
12.8 1 0
13.2 1 0
13.6 1 0
14 1 0
14.4 1 0
14.8 1 0
15.2 1 0
15.6 1 0
16 1 0
16.4 1 0
16.8 1 0
17.2 1 0
17.6 1 0
18 1 0
18.4 1 0
18.8 1 0
19.2 1 0
19.6 1 0
20 1 0
20.4 1 0
20.8 1 0
21.2 1 0
21.6 1 0
22 1 0
22.4 1 0
22.8 1 0
23.2 1 0
23.6 1 0
24 1 0
24.4 1 0
24.8 1 0
25.2 1 0
25.6 1 0
26 1 0
26.4 1 0
26.8 1 0
27.2 1 0
27.6 1 0
28 1 0
28.4 1 0
28.8 1 0
29.2 1 0
29.6 1 0
30 1 0
30.4 1 0
30.8 1 0
31.2 1 0
31.6 1 0
32 1 0
32.4 1 0
32.8 1 0
33.2 1 0
33.6 1 0
34 1 0
34.4 1 0
34.8 1 0
35.2 1 0
35.6 1 0
36 1 0
36.4 1 0
36.8 1 0
37.2 1 0
37.6 1 0
38 1 0
38.4 1 0
38.8 1 0
39.2 1 0
39.6 1 0
40 1 0
40.4 1 0
0 1.1 0
0.4 1.1 0
0.8 1.1 0
1.2 1.1 0
1.6 1.1 0
2 1.1 0
2.4 1.1 0
2.8 1.1 0
3.2 1.1 0
3.6 1.1 0
4 1.1 0
4.4 1.1 0
4.8 1.1 0
5.2 1.1 0
5.6 1.1 0
6 1.1 0
6.4 1.1 0
6.8 1.1 0
7.2 1.1 0
7.6 1.1 0
8 1.1 0
8.4 1.1 0
8.8 1.1 0
9.2 1.1 0
9.6 1.1 0
10 1.1 0
10.4 1.1 0
10.8 1.1 0
11.2 1.1 0
11.6 1.1 0
12 1.1 0
12.4 1.1 0
12.8 1.1 0
13.2 1.1 0
13.6 1.1 0
14 1.1 0
14.4 1.1 0
14.8 1.1 0
15.2 1.1 0
15.6 1.1 0
16 1.1 0
16.4 1.1 0
16.8 1.1 0
17.2 1.1 0
17.6 1.1 0
18 1.1 0
18.4 1.1 0
18.8 1.1 0
19.2 1.1 0
19.6 1.1 0
20 1.1 0
20.4 1.1 0
20.8 1.1 0
21.2 1.1 0
21.6 1.1 0
22 1.1 0
22.4 1.1 0
22.8 1.1 0
23.2 1.1 0
23.6 1.1 0
24 1.1 0
24.4 1.1 0
24.8 1.1 0
25.2 1.1 0
25.6 1.1 0
26 1.1 0
26.4 1.1 0
26.8 1.1 0
27.2 1.1 0
27.6 1.1 0
28 1.1 0
28.4 1.1 0
28.8 1.1 0
29.2 1.1 0
29.6 1.1 0
30 1.1 0
30.4 1.1 0
30.8 1.1 0
31.2 1.1 0
31.6 1.1 0
32 1.1 0
32.4 1.1 0
32.8 1.1 0
33.2 1.1 0
33.6 1.1 0
34 1.1 0
34.4 1.1 0
34.8 1.1 0
35.2 1.1 0
35.6 1.1 0
36 1.1 0
36.4 1.1 0
36.8 1.1 0
37.2 1.1 0
37.6 1.1 0
38 1.1 0
38.4 1.1 0
38.8 1.1 0
39.2 1.1 0
39.6 1.1 0
40 1.1 0
40.4 1.1 0

POINT_DATA 1224

SCALARS p double
LOOKUP_TABLE default
12.5056
12.5056
11.7884
11.0617
10.4285
9.89784
9.45255
9.07033
8.73248
8.42595
8.14225
7.87588
7.62317
7.38145
7.14874
6.92344
6.70425
6.4901
6.28008
6.07344
5.86955
5.66788
5.46798
5.26949
5.07212
4.8756
4.67974
4.48437
4.28936
4.0946
3.90001
3.70553
3.51111
3.3167
3.12229
2.92786
2.73339
2.53887
2.34428
2.14964
1.95493
1.76016
1.56534
1.37046
1.17553
0.980556
0.785543
0.590494
0.395413
0.200303
0.00516822
-0.189989
-0.385166
-0.580361
-0.775572
-0.970797
-1.16604
-1.36128
-1.55654
-1.75181
-1.94708
-2.14236
-2.33764
-2.53293
-2.72822
-2.92351
-3.1188
-3.31409
-3.50939
-3.70468
-3.89997
-4.09526
-4.29055
-4.48583
-4.68112
-4.87641
-5.0717
-5.26698
-5.46227
-5.65756
-5.85284
-6.04813
-6.24341
-6.4387
-6.63398
-6.82927
-7.02455
-7.21984
-7.41512
-7.61041
-7.80569
-8.00099
-8.19629
-8.39166
-8.58716
-8.78368
-8.9823
-9.19507
-9.44105
-9.8749
-11.4508
11.4508
12.5056
12.5056
11.7884
11.0617
10.4285
9.89784
9.45255
9.07033
8.73248
8.42595
8.14225
7.87588
7.62317
7.38145
7.14874
6.92344
6.70425
6.4901
6.28008
6.07344
5.86955
5.66788
5.46798
5.26949
5.07212
4.8756
4.67974
4.48437
4.28936
4.0946
3.90001
3.70553
3.51111
3.3167
3.12229
2.92786
2.73339
2.53887
2.34428
2.14964
1.95493
1.76016
1.56534
1.37046
1.17553
0.980556
0.785543
0.590494
0.395413
0.200303
0.00516822
-0.189989
-0.385166
-0.580361
-0.775572
-0.970797
-1.16604
-1.36128
-1.55654
-1.75181
-1.94708
-2.14236
-2.33764
-2.53293
-2.72822
-2.92351
-3.1188
-3.31409
-3.50939
-3.70468
-3.89997
-4.09526
-4.29055
-4.48583
-4.68112
-4.87641
-5.0717
-5.26698
-5.46227
-5.65756
-5.85284
-6.04813
-6.24341
-6.4387
-6.63398
-6.82927
-7.02455
-7.21984
-7.41512
-7.61041
-7.80569
-8.00099
-8.19629
-8.39166
-8.58716
-8.78368
-8.9823
-9.19507
-9.44105
-9.8749
-11.4508
11.4508
12.1326
12.1326
11.5628
10.9462
10.383
9.89117
9.46431
9.08887
8.75203
8.44403
8.15804
7.88931
7.63442
7.39082
7.1565
6.92986
6.70954
6.49445
6.28366
6.07637
5.87194
5.66982
5.46956
5.27076
5.07313
4.87641
4.68037
4.48486
4.28974
4.09489
3.90023
3.70569
3.51122
3.31678
3.12235
2.92789
2.7334
2.53886
2.34427
2.14962
1.9549
1.76013
1.56531
1.37043
1.1755
0.980528
0.785516
0.590468
0.395388
0.20028
0.00514716
-0.190008
-0.385184
-0.580377
-0.775586
-0.970809
-1.16604
-1.36129
-1.55655
-1.75181
-1.94709
-2.14236
-2.33765
-2.53293
-2.72822
-2.92351
-3.1188
-3.31409
-3.50938
-3.70468
-3.89997
-4.09526
-4.29055
-4.48583
-4.68112
-4.87641
-5.0717
-5.26698
-5.46227
-5.65756
-5.85284
-6.04813
-6.24341
-6.4387
-6.63398
-6.82927
-7.02455
-7.21984
-7.41512
-7.61041
-7.80569
-8.00098
-8.19627
-8.3916
-8.58695
-8.78286
-8.97924
-9.18295
-9.39764
-9.7198
-10.4284
10.4284
11.8366
11.8366
11.3471
10.8087
10.3072
9.85781
9.45712
9.09624
8.76655
8.46133
8.17567
7.90599
7.64958
7.40425
7.1682
6.93994
6.71816
6.50177
6.28984
6.08157
5.87631
5.67347
5.4726
5.27329
5.07522
4.87813
4.68179
4.48602
4.29068
4.09565
3.90084
3.70618
3.51161
3.31709
3.12258
2.92807
2.73354
2.53896
2.34434
2.14966
1.95493
1.76015
1.56531
1.37042
1.17549
0.980511
0.785496
0.590446
0.395366
0.200257
0.00512461
-0.19003
-0.385205
-0.580396
-0.775604
-0.970825
-1.16606
-1.3613
-1.55656
-1.75182
-1.94709
-2.14237
-2.33765
-2.53294
-2.72822
-2.92351
-3.1188
-3.31409
-3.50939
-3.70468
-3.89997
-4.09526
-4.29055
-4.48583
-4.68112
-4.87641
-5.0717
-5.26698
-5.46227
-5.65756
-5.85284
-6.04813
-6.24341
-6.4387
-6.63398
-6.82927
-7.02455
-7.21984
-7.41512
-7.61041
-7.80569
-8.00098
-8.19625
-8.39151
-8.58664
-8.78159
-8.97467
-9.16509
-9.32726
-9.48393
-9.05312
9.05312
11.6459
11.6459
11.2018
10.7095
10.2463
9.82574
9.44492
9.09688
8.77496
8.47402
8.19033
7.92116
7.66433
7.41806
7.18082
6.95124
6.72815
6.51052
6.29743
6.08812
5.88192
5.67827
5.47667
5.27674
5.07813
4.88057
4.68382
4.48771
4.29208
4.09681
3.90179
3.70696
3.51224
3.3176
3.123
2.92841
2.7338
2.53917
2.3445
2.14978
1.95502
1.76021
1.56535
1.37045
1.1755
0.980514
0.785493
0.590438
0.395354
0.200243
0.00510871
-0.190047
-0.385222
-0.580413
-0.775621
-0.970841
-1.16607
-1.36132
-1.55657
-1.75183
-1.9471
-2.14238
-2.33766
-2.53294
-2.72823
-2.92352
-3.11881
-3.3141
-3.50939
-3.70468
-3.89997
-4.09526
-4.29055
-4.48583
-4.68112
-4.87641
-5.0717
-5.26698
-5.46227
-5.65756
-5.85284
-6.04813
-6.24341
-6.4387
-6.63398
-6.82927
-7.02455
-7.21984
-7.41512
-7.61041
-7.80569
-8.00097
-8.19623
-8.39143
-8.58635
-8.78048
-8.97028
-9.14994
-9.25805
-9.27814
-7.81471
7.81471
11.5529
11.5529
11.1304
10.6599
10.2151
9.80852
9.43779
9.09667
8.77929
8.48116
8.19903
7.93053
7.67378
7.42719
7.18937
6.9591
6.73525
6.51684
6.30301
6.09301
5.88617
5.68193
5.47981
5.27942
5.08041
4.8825
4.68545
4.48908
4.29323
4.09776
3.90258
3.7076
3.51277
3.31804
3.12335
2.92869
2.73403
2.53935
2.34464
2.14989
1.9551
1.76027
1.56539
1.37048
1.17552
0.980527
0.785498
0.590439
0.395351
0.200238
0.00510169
-0.190055
-0.385231
-0.580423
-0.77563
-0.970851
-1.16608
-1.36133
-1.55658
-1.75184
-1.94711
-2.14238
-2.33766
-2.53295
-2.72823
-2.92352
-3.11881
-3.3141
-3.50939
-3.70468
-3.89997
-4.09526
-4.29055
-4.48583
-4.68112
-4.87641
-5.0717
-5.26698
-5.46227
-5.65756
-5.85284
-6.04813
-6.24341
-6.4387
-6.63398
-6.82927
-7.02455
-7.21984
-7.41512
-7.61041
-7.80569
-8.00097
-8.19622
-8.39139
-8.58617
-8.77989
-8.96753
-9.14182
-9.21551
-9.16346
-7.09409
7.09409
11.5529
11.5529
11.1304
10.6599
10.2151
9.80852
9.43779
9.09667
8.77929
8.48116
8.19903
7.93053
7.67378
7.42719
7.18937
6.9591
6.73525
6.51684
6.30301
6.09301
5.88617
5.68193
5.47981
5.27942
5.08041
4.8825
4.68545
4.48908
4.29323
4.09776
3.90258
3.7076
3.51277
3.31804
3.12335
2.92869
2.73403
2.53935
2.34464
2.14989
1.9551
1.76027
1.56539
1.37048
1.17552
0.980527
0.785499
0.590439
0.395351
0.200238
0.00510175
-0.190055
-0.385231
-0.580423
-0.77563
-0.970851
-1.16608
-1.36133
-1.55658
-1.75184
-1.94711
-2.14238
-2.33766
-2.53295
-2.72823
-2.92352
-3.11881
-3.3141
-3.50939
-3.70468
-3.89997
-4.09526
-4.29055
-4.48583
-4.68112
-4.87641
-5.0717
-5.26698
-5.46227
-5.65756
-5.85284
-6.04813
-6.24341
-6.4387
-6.63398
-6.82927
-7.02455
-7.21984
-7.41512
-7.61041
-7.80569
-8.00097
-8.19622
-8.39139
-8.58617
-8.77989
-8.96753
-9.14182
-9.21551
-9.16346
-7.09409
7.09409
11.6459
11.6459
11.2018
10.7095
10.2463
9.82574
9.44492
9.09688
8.77496
8.47402
8.19033
7.92116
7.66433
7.41806
7.18082
6.95124
6.72815
6.51052
6.29743
6.08812
5.88192
5.67827
5.47667
5.27674
5.07813
4.88057
4.68382
4.48771
4.29208
4.09681
3.90179
3.70696
3.51224
3.3176
3.123
2.92841
2.7338
2.53917
2.3445
2.14978
1.95502
1.76021
1.56535
1.37045
1.1755
0.980514
0.785493
0.590438
0.395354
0.200243
0.00510887
-0.190047
-0.385222
-0.580413
-0.77562
-0.970841
-1.16607
-1.36132
-1.55657
-1.75183
-1.9471
-2.14238
-2.33766
-2.53294
-2.72823
-2.92352
-3.11881
-3.3141
-3.50939
-3.70468
-3.89997
-4.09526
-4.29055
-4.48583
-4.68112
-4.87641
-5.0717
-5.26698
-5.46227
-5.65756
-5.85284
-6.04813
-6.24341
-6.4387
-6.63398
-6.82927
-7.02455
-7.21984
-7.41512
-7.61041
-7.80569
-8.00097
-8.19623
-8.39143
-8.58635
-8.78048
-8.97028
-9.14994
-9.25805
-9.27814
-7.81471
7.81471
11.8366
11.8366
11.3471
10.8087
10.3072
9.8578
9.45712
9.09624
8.76655
8.46133
8.17567
7.90599
7.64958
7.40425
7.1682
6.93994
6.71816
6.50177
6.28984
6.08157
5.87631
5.67347
5.4726
5.27329
5.07522
4.87813
4.68179
4.48602
4.29068
4.09565
3.90084
3.70618
3.51161
3.31709
3.12258
2.92807
2.73354
2.53896
2.34434
2.14966
1.95493
1.76015
1.56531
1.37042
1.17549
0.980511
0.785496
0.590446
0.395366
0.200258
0.00512482
-0.19003
-0.385204
-0.580396
-0.775604
-0.970825
-1.16606
-1.3613
-1.55656
-1.75182
-1.94709
-2.14237
-2.33765
-2.53294
-2.72822
-2.92351
-3.1188
-3.31409
-3.50939
-3.70468
-3.89997
-4.09526
-4.29055
-4.48583
-4.68112
-4.87641
-5.0717
-5.26698
-5.46227
-5.65756
-5.85284
-6.04813
-6.24341
-6.4387
-6.63398
-6.82927
-7.02455
-7.21984
-7.41512
-7.61041
-7.80569
-8.00098
-8.19625
-8.39151
-8.58664
-8.78159
-8.97467
-9.16509
-9.32726
-9.48393
-9.05312
9.05312
12.1326
12.1326
11.5628
10.9462
10.383
9.89117
9.46431
9.08887
8.75203
8.44403
8.15804
7.88931
7.63442
7.39082
7.1565
6.92986
6.70954
6.49445
6.28366
6.07637
5.87194
5.66982
5.46956
5.27076
5.07313
4.87641
4.68037
4.48486
4.28974
4.09489
3.90023
3.70569
3.51122
3.31678
3.12235
2.92789
2.7334
2.53886
2.34427
2.14962
1.9549
1.76013
1.56531
1.37043
1.1755
0.980528
0.785516
0.590468
0.395389
0.200281
0.00514732
-0.190008
-0.385184
-0.580377
-0.775586
-0.970809
-1.16605
-1.36129
-1.55655
-1.75181
-1.94709
-2.14236
-2.33765
-2.53293
-2.72822
-2.92351
-3.1188
-3.31409
-3.50938
-3.70468
-3.89997
-4.09526
-4.29055
-4.48583
-4.68112
-4.87641
-5.0717
-5.26698
-5.46227
-5.65756
-5.85284
-6.04813
-6.24341
-6.4387
-6.63398
-6.82927
-7.02455
-7.21984
-7.41512
-7.61041
-7.80569
-8.00098
-8.19627
-8.3916
-8.58695
-8.78286
-8.97924
-9.18295
-9.39764
-9.7198
-10.4284
10.4284
12.5056
12.5056
11.7884
11.0617
10.4285
9.89784
9.45255
9.07033
8.73248
8.42595
8.14225
7.87588
7.62317
7.38145
7.14874
6.92344
6.70425
6.4901
6.28008
6.07344
5.86955
5.66788
5.46798
5.26949
5.07212
4.8756
4.67974
4.48437
4.28936
4.0946
3.90001
3.70553
3.51111
3.3167
3.12229
2.92786
2.73339
2.53887
2.34428
2.14964
1.95493
1.76016
1.56534
1.37046
1.17553
0.980556
0.785543
0.590494
0.395413
0.200303
0.00516824
-0.189989
-0.385166
-0.580362
-0.775573
-0.970798
-1.16604
-1.36128
-1.55654
-1.75181
-1.94708
-2.14236
-2.33764
-2.53293
-2.72822
-2.92351
-3.1188
-3.31409
-3.50938
-3.70468
-3.89997
-4.09526
-4.29055
-4.48583
-4.68112
-4.87641
-5.0717
-5.26698
-5.46227
-5.65756
-5.85284
-6.04813
-6.24341
-6.4387
-6.63398
-6.82927
-7.02455
-7.21984
-7.41512
-7.61041
-7.80569
-8.00098
-8.19628
-8.39166
-8.58716
-8.78368
-8.9823
-9.19507
-9.44105
-9.87491
-11.4508
11.4508
12.5056
12.5056
11.7884
11.0617
10.4285
9.89784
9.45255
9.07033
8.73248
8.42595
8.14225
7.87588
7.62317
7.38145
7.14874
6.92344
6.70425
6.4901
6.28008
6.07344
5.86955
5.66788
5.46798
5.26949
5.07212
4.8756
4.67974
4.48437
4.28936
4.0946
3.90001
3.70553
3.51111
3.3167
3.12229
2.92786
2.73339
2.53887
2.34428
2.14964
1.95493
1.76016
1.56534
1.37046
1.17553
0.980556
0.785543
0.590494
0.395413
0.200303
0.00516824
-0.189989
-0.385166
-0.580362
-0.775573
-0.970798
-1.16604
-1.36128
-1.55654
-1.75181
-1.94708
-2.14236
-2.33764
-2.53293
-2.72822
-2.92351
-3.1188
-3.31409
-3.50938
-3.70468
-3.89997
-4.09526
-4.29055
-4.48583
-4.68112
-4.87641
-5.0717
-5.26698
-5.46227
-5.65756
-5.85284
-6.04813
-6.24341
-6.4387
-6.63398
-6.82927
-7.02455
-7.21984
-7.41512
-7.61041
-7.80569
-8.00098
-8.19628
-8.39166
-8.58716
-8.78368
-8.9823
-9.19507
-9.44105
-9.87491
-11.4508
11.4508
