# vtk DataFile Version 2.0
FlowField
ASCII
DATASET STRUCTURED_GRID
DIMENSIONS 102 1 12 
POINTS 1224 double
0 0 0
0.4 0 0
0.8 0 0
1.2 0 0
1.6 0 0
2 0 0
2.4 0 0
2.8 0 0
3.2 0 0
3.6 0 0
4 0 0
4.4 0 0
4.8 0 0
5.2 0 0
5.6 0 0
6 0 0
6.4 0 0
6.8 0 0
7.2 0 0
7.6 0 0
8 0 0
8.4 0 0
8.8 0 0
9.2 0 0
9.6 0 0
10 0 0
10.4 0 0
10.8 0 0
11.2 0 0
11.6 0 0
12 0 0
12.4 0 0
12.8 0 0
13.2 0 0
13.6 0 0
14 0 0
14.4 0 0
14.8 0 0
15.2 0 0
15.6 0 0
16 0 0
16.4 0 0
16.8 0 0
17.2 0 0
17.6 0 0
18 0 0
18.4 0 0
18.8 0 0
19.2 0 0
19.6 0 0
20 0 0
20.4 0 0
20.8 0 0
21.2 0 0
21.6 0 0
22 0 0
22.4 0 0
22.8 0 0
23.2 0 0
23.6 0 0
24 0 0
24.4 0 0
24.8 0 0
25.2 0 0
25.6 0 0
26 0 0
26.4 0 0
26.8 0 0
27.2 0 0
27.6 0 0
28 0 0
28.4 0 0
28.8 0 0
29.2 0 0
29.6 0 0
30 0 0
30.4 0 0
30.8 0 0
31.2 0 0
31.6 0 0
32 0 0
32.4 0 0
32.8 0 0
33.2 0 0
33.6 0 0
34 0 0
34.4 0 0
34.8 0 0
35.2 0 0
35.6 0 0
36 0 0
36.4 0 0
36.8 0 0
37.2 0 0
37.6 0 0
38 0 0
38.4 0 0
38.8 0 0
39.2 0 0
39.6 0 0
40 0 0
40.4 0 0
0 0.1 0
0.4 0.1 0
0.8 0.1 0
1.2 0.1 0
1.6 0.1 0
2 0.1 0
2.4 0.1 0
2.8 0.1 0
3.2 0.1 0
3.6 0.1 0
4 0.1 0
4.4 0.1 0
4.8 0.1 0
5.2 0.1 0
5.6 0.1 0
6 0.1 0
6.4 0.1 0
6.8 0.1 0
7.2 0.1 0
7.6 0.1 0
8 0.1 0
8.4 0.1 0
8.8 0.1 0
9.2 0.1 0
9.6 0.1 0
10 0.1 0
10.4 0.1 0
10.8 0.1 0
11.2 0.1 0
11.6 0.1 0
12 0.1 0
12.4 0.1 0
12.8 0.1 0
13.2 0.1 0
13.6 0.1 0
14 0.1 0
14.4 0.1 0
14.8 0.1 0
15.2 0.1 0
15.6 0.1 0
16 0.1 0
16.4 0.1 0
16.8 0.1 0
17.2 0.1 0
17.6 0.1 0
18 0.1 0
18.4 0.1 0
18.8 0.1 0
19.2 0.1 0
19.6 0.1 0
20 0.1 0
20.4 0.1 0
20.8 0.1 0
21.2 0.1 0
21.6 0.1 0
22 0.1 0
22.4 0.1 0
22.8 0.1 0
23.2 0.1 0
23.6 0.1 0
24 0.1 0
24.4 0.1 0
24.8 0.1 0
25.2 0.1 0
25.6 0.1 0
26 0.1 0
26.4 0.1 0
26.8 0.1 0
27.2 0.1 0
27.6 0.1 0
28 0.1 0
28.4 0.1 0
28.8 0.1 0
29.2 0.1 0
29.6 0.1 0
30 0.1 0
30.4 0.1 0
30.8 0.1 0
31.2 0.1 0
31.6 0.1 0
32 0.1 0
32.4 0.1 0
32.8 0.1 0
33.2 0.1 0
33.6 0.1 0
34 0.1 0
34.4 0.1 0
34.8 0.1 0
35.2 0.1 0
35.6 0.1 0
36 0.1 0
36.4 0.1 0
36.8 0.1 0
37.2 0.1 0
37.6 0.1 0
38 0.1 0
38.4 0.1 0
38.8 0.1 0
39.2 0.1 0
39.6 0.1 0
40 0.1 0
40.4 0.1 0
0 0.2 0
0.4 0.2 0
0.8 0.2 0
1.2 0.2 0
1.6 0.2 0
2 0.2 0
2.4 0.2 0
2.8 0.2 0
3.2 0.2 0
3.6 0.2 0
4 0.2 0
4.4 0.2 0
4.8 0.2 0
5.2 0.2 0
5.6 0.2 0
6 0.2 0
6.4 0.2 0
6.8 0.2 0
7.2 0.2 0
7.6 0.2 0
8 0.2 0
8.4 0.2 0
8.8 0.2 0
9.2 0.2 0
9.6 0.2 0
10 0.2 0
10.4 0.2 0
10.8 0.2 0
11.2 0.2 0
11.6 0.2 0
12 0.2 0
12.4 0.2 0
12.8 0.2 0
13.2 0.2 0
13.6 0.2 0
14 0.2 0
14.4 0.2 0
14.8 0.2 0
15.2 0.2 0
15.6 0.2 0
16 0.2 0
16.4 0.2 0
16.8 0.2 0
17.2 0.2 0
17.6 0.2 0
18 0.2 0
18.4 0.2 0
18.8 0.2 0
19.2 0.2 0
19.6 0.2 0
20 0.2 0
20.4 0.2 0
20.8 0.2 0
21.2 0.2 0
21.6 0.2 0
22 0.2 0
22.4 0.2 0
22.8 0.2 0
23.2 0.2 0
23.6 0.2 0
24 0.2 0
24.4 0.2 0
24.8 0.2 0
25.2 0.2 0
25.6 0.2 0
26 0.2 0
26.4 0.2 0
26.8 0.2 0
27.2 0.2 0
27.6 0.2 0
28 0.2 0
28.4 0.2 0
28.8 0.2 0
29.2 0.2 0
29.6 0.2 0
30 0.2 0
30.4 0.2 0
30.8 0.2 0
31.2 0.2 0
31.6 0.2 0
32 0.2 0
32.4 0.2 0
32.8 0.2 0
33.2 0.2 0
33.6 0.2 0
34 0.2 0
34.4 0.2 0
34.8 0.2 0
35.2 0.2 0
35.6 0.2 0
36 0.2 0
36.4 0.2 0
36.8 0.2 0
37.2 0.2 0
37.6 0.2 0
38 0.2 0
38.4 0.2 0
38.8 0.2 0
39.2 0.2 0
39.6 0.2 0
40 0.2 0
40.4 0.2 0
0 0.3 0
0.4 0.3 0
0.8 0.3 0
1.2 0.3 0
1.6 0.3 0
2 0.3 0
2.4 0.3 0
2.8 0.3 0
3.2 0.3 0
3.6 0.3 0
4 0.3 0
4.4 0.3 0
4.8 0.3 0
5.2 0.3 0
5.6 0.3 0
6 0.3 0
6.4 0.3 0
6.8 0.3 0
7.2 0.3 0
7.6 0.3 0
8 0.3 0
8.4 0.3 0
8.8 0.3 0
9.2 0.3 0
9.6 0.3 0
10 0.3 0
10.4 0.3 0
10.8 0.3 0
11.2 0.3 0
11.6 0.3 0
12 0.3 0
12.4 0.3 0
12.8 0.3 0
13.2 0.3 0
13.6 0.3 0
14 0.3 0
14.4 0.3 0
14.8 0.3 0
15.2 0.3 0
15.6 0.3 0
16 0.3 0
16.4 0.3 0
16.8 0.3 0
17.2 0.3 0
17.6 0.3 0
18 0.3 0
18.4 0.3 0
18.8 0.3 0
19.2 0.3 0
19.6 0.3 0
20 0.3 0
20.4 0.3 0
20.8 0.3 0
21.2 0.3 0
21.6 0.3 0
22 0.3 0
22.4 0.3 0
22.8 0.3 0
23.2 0.3 0
23.6 0.3 0
24 0.3 0
24.4 0.3 0
24.8 0.3 0
25.2 0.3 0
25.6 0.3 0
26 0.3 0
26.4 0.3 0
26.8 0.3 0
27.2 0.3 0
27.6 0.3 0
28 0.3 0
28.4 0.3 0
28.8 0.3 0
29.2 0.3 0
29.6 0.3 0
30 0.3 0
30.4 0.3 0
30.8 0.3 0
31.2 0.3 0
31.6 0.3 0
32 0.3 0
32.4 0.3 0
32.8 0.3 0
33.2 0.3 0
33.6 0.3 0
34 0.3 0
34.4 0.3 0
34.8 0.3 0
35.2 0.3 0
35.6 0.3 0
36 0.3 0
36.4 0.3 0
36.8 0.3 0
37.2 0.3 0
37.6 0.3 0
38 0.3 0
38.4 0.3 0
38.8 0.3 0
39.2 0.3 0
39.6 0.3 0
40 0.3 0
40.4 0.3 0
0 0.4 0
0.4 0.4 0
0.8 0.4 0
1.2 0.4 0
1.6 0.4 0
2 0.4 0
2.4 0.4 0
2.8 0.4 0
3.2 0.4 0
3.6 0.4 0
4 0.4 0
4.4 0.4 0
4.8 0.4 0
5.2 0.4 0
5.6 0.4 0
6 0.4 0
6.4 0.4 0
6.8 0.4 0
7.2 0.4 0
7.6 0.4 0
8 0.4 0
8.4 0.4 0
8.8 0.4 0
9.2 0.4 0
9.6 0.4 0
10 0.4 0
10.4 0.4 0
10.8 0.4 0
11.2 0.4 0
11.6 0.4 0
12 0.4 0
12.4 0.4 0
12.8 0.4 0
13.2 0.4 0
13.6 0.4 0
14 0.4 0
14.4 0.4 0
14.8 0.4 0
15.2 0.4 0
15.6 0.4 0
16 0.4 0
16.4 0.4 0
16.8 0.4 0
17.2 0.4 0
17.6 0.4 0
18 0.4 0
18.4 0.4 0
18.8 0.4 0
19.2 0.4 0
19.6 0.4 0
20 0.4 0
20.4 0.4 0
20.8 0.4 0
21.2 0.4 0
21.6 0.4 0
22 0.4 0
22.4 0.4 0
22.8 0.4 0
23.2 0.4 0
23.6 0.4 0
24 0.4 0
24.4 0.4 0
24.8 0.4 0
25.2 0.4 0
25.6 0.4 0
26 0.4 0
26.4 0.4 0
26.8 0.4 0
27.2 0.4 0
27.6 0.4 0
28 0.4 0
28.4 0.4 0
28.8 0.4 0
29.2 0.4 0
29.6 0.4 0
30 0.4 0
30.4 0.4 0
30.8 0.4 0
31.2 0.4 0
31.6 0.4 0
32 0.4 0
32.4 0.4 0
32.8 0.4 0
33.2 0.4 0
33.6 0.4 0
34 0.4 0
34.4 0.4 0
34.8 0.4 0
35.2 0.4 0
35.6 0.4 0
36 0.4 0
36.4 0.4 0
36.8 0.4 0
37.2 0.4 0
37.6 0.4 0
38 0.4 0
38.4 0.4 0
38.8 0.4 0
39.2 0.4 0
39.6 0.4 0
40 0.4 0
40.4 0.4 0
0 0.5 0
0.4 0.5 0
0.8 0.5 0
1.2 0.5 0
1.6 0.5 0
2 0.5 0
2.4 0.5 0
2.8 0.5 0
3.2 0.5 0
3.6 0.5 0
4 0.5 0
4.4 0.5 0
4.8 0.5 0
5.2 0.5 0
5.6 0.5 0
6 0.5 0
6.4 0.5 0
6.8 0.5 0
7.2 0.5 0
7.6 0.5 0
8 0.5 0
8.4 0.5 0
8.8 0.5 0
9.2 0.5 0
9.6 0.5 0
10 0.5 0
10.4 0.5 0
10.8 0.5 0
11.2 0.5 0
11.6 0.5 0
12 0.5 0
12.4 0.5 0
12.8 0.5 0
13.2 0.5 0
13.6 0.5 0
14 0.5 0
14.4 0.5 0
14.8 0.5 0
15.2 0.5 0
15.6 0.5 0
16 0.5 0
16.4 0.5 0
16.8 0.5 0
17.2 0.5 0
17.6 0.5 0
18 0.5 0
18.4 0.5 0
18.8 0.5 0
19.2 0.5 0
19.6 0.5 0
20 0.5 0
20.4 0.5 0
20.8 0.5 0
21.2 0.5 0
21.6 0.5 0
22 0.5 0
22.4 0.5 0
22.8 0.5 0
23.2 0.5 0
23.6 0.5 0
24 0.5 0
24.4 0.5 0
24.8 0.5 0
25.2 0.5 0
25.6 0.5 0
26 0.5 0
26.4 0.5 0
26.8 0.5 0
27.2 0.5 0
27.6 0.5 0
28 0.5 0
28.4 0.5 0
28.8 0.5 0
29.2 0.5 0
29.6 0.5 0
30 0.5 0
30.4 0.5 0
30.8 0.5 0
31.2 0.5 0
31.6 0.5 0
32 0.5 0
32.4 0.5 0
32.8 0.5 0
33.2 0.5 0
33.6 0.5 0
34 0.5 0
34.4 0.5 0
34.8 0.5 0
35.2 0.5 0
35.6 0.5 0
36 0.5 0
36.4 0.5 0
36.8 0.5 0
37.2 0.5 0
37.6 0.5 0
38 0.5 0
38.4 0.5 0
38.8 0.5 0
39.2 0.5 0
39.6 0.5 0
40 0.5 0
40.4 0.5 0
0 0.6 0
0.4 0.6 0
0.8 0.6 0
1.2 0.6 0
1.6 0.6 0
2 0.6 0
2.4 0.6 0
2.8 0.6 0
3.2 0.6 0
3.6 0.6 0
4 0.6 0
4.4 0.6 0
4.8 0.6 0
5.2 0.6 0
5.6 0.6 0
6 0.6 0
6.4 0.6 0
6.8 0.6 0
7.2 0.6 0
7.6 0.6 0
8 0.6 0
8.4 0.6 0
8.8 0.6 0
9.2 0.6 0
9.6 0.6 0
10 0.6 0
10.4 0.6 0
10.8 0.6 0
11.2 0.6 0
11.6 0.6 0
12 0.6 0
12.4 0.6 0
12.8 0.6 0
13.2 0.6 0
13.6 0.6 0
14 0.6 0
14.4 0.6 0
14.8 0.6 0
15.2 0.6 0
15.6 0.6 0
16 0.6 0
16.4 0.6 0
16.8 0.6 0
17.2 0.6 0
17.6 0.6 0
18 0.6 0
18.4 0.6 0
18.8 0.6 0
19.2 0.6 0
19.6 0.6 0
20 0.6 0
20.4 0.6 0
20.8 0.6 0
21.2 0.6 0
21.6 0.6 0
22 0.6 0
22.4 0.6 0
22.8 0.6 0
23.2 0.6 0
23.6 0.6 0
24 0.6 0
24.4 0.6 0
24.8 0.6 0
25.2 0.6 0
25.6 0.6 0
26 0.6 0
26.4 0.6 0
26.8 0.6 0
27.2 0.6 0
27.6 0.6 0
28 0.6 0
28.4 0.6 0
28.8 0.6 0
29.2 0.6 0
29.6 0.6 0
30 0.6 0
30.4 0.6 0
30.8 0.6 0
31.2 0.6 0
31.6 0.6 0
32 0.6 0
32.4 0.6 0
32.8 0.6 0
33.2 0.6 0
33.6 0.6 0
34 0.6 0
34.4 0.6 0
34.8 0.6 0
35.2 0.6 0
35.6 0.6 0
36 0.6 0
36.4 0.6 0
36.8 0.6 0
37.2 0.6 0
37.6 0.6 0
38 0.6 0
38.4 0.6 0
38.8 0.6 0
39.2 0.6 0
39.6 0.6 0
40 0.6 0
40.4 0.6 0
0 0.7 0
0.4 0.7 0
0.8 0.7 0
1.2 0.7 0
1.6 0.7 0
2 0.7 0
2.4 0.7 0
2.8 0.7 0
3.2 0.7 0
3.6 0.7 0
4 0.7 0
4.4 0.7 0
4.8 0.7 0
5.2 0.7 0
5.6 0.7 0
6 0.7 0
6.4 0.7 0
6.8 0.7 0
7.2 0.7 0
7.6 0.7 0
8 0.7 0
8.4 0.7 0
8.8 0.7 0
9.2 0.7 0
9.6 0.7 0
10 0.7 0
10.4 0.7 0
10.8 0.7 0
11.2 0.7 0
11.6 0.7 0
12 0.7 0
12.4 0.7 0
12.8 0.7 0
13.2 0.7 0
13.6 0.7 0
14 0.7 0
14.4 0.7 0
14.8 0.7 0
15.2 0.7 0
15.6 0.7 0
16 0.7 0
16.4 0.7 0
16.8 0.7 0
17.2 0.7 0
17.6 0.7 0
18 0.7 0
18.4 0.7 0
18.8 0.7 0
19.2 0.7 0
19.6 0.7 0
20 0.7 0
20.4 0.7 0
20.8 0.7 0
21.2 0.7 0
21.6 0.7 0
22 0.7 0
22.4 0.7 0
22.8 0.7 0
23.2 0.7 0
23.6 0.7 0
24 0.7 0
24.4 0.7 0
24.8 0.7 0
25.2 0.7 0
25.6 0.7 0
26 0.7 0
26.4 0.7 0
26.8 0.7 0
27.2 0.7 0
27.6 0.7 0
28 0.7 0
28.4 0.7 0
28.8 0.7 0
29.2 0.7 0
29.6 0.7 0
30 0.7 0
30.4 0.7 0
30.8 0.7 0
31.2 0.7 0
31.6 0.7 0
32 0.7 0
32.4 0.7 0
32.8 0.7 0
33.2 0.7 0
33.6 0.7 0
34 0.7 0
34.4 0.7 0
34.8 0.7 0
35.2 0.7 0
35.6 0.7 0
36 0.7 0
36.4 0.7 0
36.8 0.7 0
37.2 0.7 0
37.6 0.7 0
38 0.7 0
38.4 0.7 0
38.8 0.7 0
39.2 0.7 0
39.6 0.7 0
40 0.7 0
40.4 0.7 0
0 0.8 0
0.4 0.8 0
0.8 0.8 0
1.2 0.8 0
1.6 0.8 0
2 0.8 0
2.4 0.8 0
2.8 0.8 0
3.2 0.8 0
3.6 0.8 0
4 0.8 0
4.4 0.8 0
4.8 0.8 0
5.2 0.8 0
5.6 0.8 0
6 0.8 0
6.4 0.8 0
6.8 0.8 0
7.2 0.8 0
7.6 0.8 0
8 0.8 0
8.4 0.8 0
8.8 0.8 0
9.2 0.8 0
9.6 0.8 0
10 0.8 0
10.4 0.8 0
10.8 0.8 0
11.2 0.8 0
11.6 0.8 0
12 0.8 0
12.4 0.8 0
12.8 0.8 0
13.2 0.8 0
13.6 0.8 0
14 0.8 0
14.4 0.8 0
14.8 0.8 0
15.2 0.8 0
15.6 0.8 0
16 0.8 0
16.4 0.8 0
16.8 0.8 0
17.2 0.8 0
17.6 0.8 0
18 0.8 0
18.4 0.8 0
18.8 0.8 0
19.2 0.8 0
19.6 0.8 0
20 0.8 0
20.4 0.8 0
20.8 0.8 0
21.2 0.8 0
21.6 0.8 0
22 0.8 0
22.4 0.8 0
22.8 0.8 0
23.2 0.8 0
23.6 0.8 0
24 0.8 0
24.4 0.8 0
24.8 0.8 0
25.2 0.8 0
25.6 0.8 0
26 0.8 0
26.4 0.8 0
26.8 0.8 0
27.2 0.8 0
27.6 0.8 0
28 0.8 0
28.4 0.8 0
28.8 0.8 0
29.2 0.8 0
29.6 0.8 0
30 0.8 0
30.4 0.8 0
30.8 0.8 0
31.2 0.8 0
31.6 0.8 0
32 0.8 0
32.4 0.8 0
32.8 0.8 0
33.2 0.8 0
33.6 0.8 0
34 0.8 0
34.4 0.8 0
34.8 0.8 0
35.2 0.8 0
35.6 0.8 0
36 0.8 0
36.4 0.8 0
36.8 0.8 0
37.2 0.8 0
37.6 0.8 0
38 0.8 0
38.4 0.8 0
38.8 0.8 0
39.2 0.8 0
39.6 0.8 0
40 0.8 0
40.4 0.8 0
0 0.9 0
0.4 0.9 0
0.8 0.9 0
1.2 0.9 0
1.6 0.9 0
2 0.9 0
2.4 0.9 0
2.8 0.9 0
3.2 0.9 0
3.6 0.9 0
4 0.9 0
4.4 0.9 0
4.8 0.9 0
5.2 0.9 0
5.6 0.9 0
6 0.9 0
6.4 0.9 0
6.8 0.9 0
7.2 0.9 0
7.6 0.9 0
8 0.9 0
8.4 0.9 0
8.8 0.9 0
9.2 0.9 0
9.6 0.9 0
10 0.9 0
10.4 0.9 0
10.8 0.9 0
11.2 0.9 0
11.6 0.9 0
12 0.9 0
12.4 0.9 0
12.8 0.9 0
13.2 0.9 0
13.6 0.9 0
14 0.9 0
14.4 0.9 0
14.8 0.9 0
15.2 0.9 0
15.6 0.9 0
16 0.9 0
16.4 0.9 0
16.8 0.9 0
17.2 0.9 0
17.6 0.9 0
18 0.9 0
18.4 0.9 0
18.8 0.9 0
19.2 0.9 0
19.6 0.9 0
20 0.9 0
20.4 0.9 0
20.8 0.9 0
21.2 0.9 0
21.6 0.9 0
22 0.9 0
22.4 0.9 0
22.8 0.9 0
23.2 0.9 0
23.6 0.9 0
24 0.9 0
24.4 0.9 0
24.8 0.9 0
25.2 0.9 0
25.6 0.9 0
26 0.9 0
26.4 0.9 0
26.8 0.9 0
27.2 0.9 0
27.6 0.9 0
28 0.9 0
28.4 0.9 0
28.8 0.9 0
29.2 0.9 0
29.6 0.9 0
30 0.9 0
30.4 0.9 0
30.8 0.9 0
31.2 0.9 0
31.6 0.9 0
32 0.9 0
32.4 0.9 0
32.8 0.9 0
33.2 0.9 0
33.6 0.9 0
34 0.9 0
34.4 0.9 0
34.8 0.9 0
35.2 0.9 0
35.6 0.9 0
36 0.9 0
36.4 0.9 0
36.8 0.9 0
37.2 0.9 0
37.6 0.9 0
38 0.9 0
38.4 0.9 0
38.8 0.9 0
39.2 0.9 0
39.6 0.9 0
40 0.9 0
40.4 0.9 0
0 1 0
0.4 1 0
0.8 1 0
1.2 1 0
1.6 1 0
2 1 0
2.4 1 0
2.8 1 0
3.2 1 0
3.6 1 0
4 1 0
4.4 1 0
4.8 1 0
5.2 1 0
5.6 1 0
6 1 0
6.4 1 0
6.8 1 0
7.2 1 0
7.6 1 0
8 1 0
8.4 1 0
8.8 1 0
9.2 1 0
9.6 1 0
10 1 0
10.4 1 0
10.8 1 0
11.2 1 0
11.6 1 0
12 1 0
12.4 1 0
12.8 1 0
13.2 1 0
13.6 1 0
14 1 0
14.4 1 0
14.8 1 0
15.2 1 0
15.6 1 0
16 1 0
16.4 1 0
16.8 1 0
17.2 1 0
17.6 1 0
18 1 0
18.4 1 0
18.8 1 0
19.2 1 0
19.6 1 0
20 1 0
20.4 1 0
20.8 1 0
21.2 1 0
21.6 1 0
22 1 0
22.4 1 0
22.8 1 0
23.2 1 0
23.6 1 0
24 1 0
24.4 1 0
24.8 1 0
25.2 1 0
25.6 1 0
26 1 0
26.4 1 0
26.8 1 0
27.2 1 0
27.6 1 0
28 1 0
28.4 1 0
28.8 1 0
29.2 1 0
29.6 1 0
30 1 0
30.4 1 0
30.8 1 0
31.2 1 0
31.6 1 0
32 1 0
32.4 1 0
32.8 1 0
33.2 1 0
33.6 1 0
34 1 0
34.4 1 0
34.8 1 0
35.2 1 0
35.6 1 0
36 1 0
36.4 1 0
36.8 1 0
37.2 1 0
37.6 1 0
38 1 0
38.4 1 0
38.8 1 0
39.2 1 0
39.6 1 0
40 1 0
40.4 1 0
0 1.1 0
0.4 1.1 0
0.8 1.1 0
1.2 1.1 0
1.6 1.1 0
2 1.1 0
2.4 1.1 0
2.8 1.1 0
3.2 1.1 0
3.6 1.1 0
4 1.1 0
4.4 1.1 0
4.8 1.1 0
5.2 1.1 0
5.6 1.1 0
6 1.1 0
6.4 1.1 0
6.8 1.1 0
7.2 1.1 0
7.6 1.1 0
8 1.1 0
8.4 1.1 0
8.8 1.1 0
9.2 1.1 0
9.6 1.1 0
10 1.1 0
10.4 1.1 0
10.8 1.1 0
11.2 1.1 0
11.6 1.1 0
12 1.1 0
12.4 1.1 0
12.8 1.1 0
13.2 1.1 0
13.6 1.1 0
14 1.1 0
14.4 1.1 0
14.8 1.1 0
15.2 1.1 0
15.6 1.1 0
16 1.1 0
16.4 1.1 0
16.8 1.1 0
17.2 1.1 0
17.6 1.1 0
18 1.1 0
18.4 1.1 0
18.8 1.1 0
19.2 1.1 0
19.6 1.1 0
20 1.1 0
20.4 1.1 0
20.8 1.1 0
21.2 1.1 0
21.6 1.1 0
22 1.1 0
22.4 1.1 0
22.8 1.1 0
23.2 1.1 0
23.6 1.1 0
24 1.1 0
24.4 1.1 0
24.8 1.1 0
25.2 1.1 0
25.6 1.1 0
26 1.1 0
26.4 1.1 0
26.8 1.1 0
27.2 1.1 0
27.6 1.1 0
28 1.1 0
28.4 1.1 0
28.8 1.1 0
29.2 1.1 0
29.6 1.1 0
30 1.1 0
30.4 1.1 0
30.8 1.1 0
31.2 1.1 0
31.6 1.1 0
32 1.1 0
32.4 1.1 0
32.8 1.1 0
33.2 1.1 0
33.6 1.1 0
34 1.1 0
34.4 1.1 0
34.8 1.1 0
35.2 1.1 0
35.6 1.1 0
36 1.1 0
36.4 1.1 0
36.8 1.1 0
37.2 1.1 0
37.6 1.1 0
38 1.1 0
38.4 1.1 0
38.8 1.1 0
39.2 1.1 0
39.6 1.1 0
40 1.1 0
40.4 1.1 0

POINT_DATA 1224

SCALARS v double
LOOKUP_TABLE default
0
0
0
0
0
0
0
0
0
0
0
0
0
0
0
0
0
0
0
0
0
0
0
0
0
0
0
0
0
0
0
0
0
0
0
0
0
0
0
0
0
0
0
0
0
0
0
0
0
0
0
0
0
0
0
0
0
0
0
0
0
0
0
0
0
0
0
0
0
0
0
0
0
0
0
0
0
0
0
0
0
0
0
0
0
0
0
0
0
0
0
0
0
0
0
0
0
0
0
0
0
0
0
0.0787076
0.0554407
0.0327104
0.0178114
0.0096583
0.00557771
0.00354711
0.00247032
0.00183779
0.00142582
0.00113509
0.000918519
0.000751473
0.000619631
0.000513893
0.00042809
0.000357847
0.000299952
0.000251978
0.000212038
0.000178627
0.000150513
0.000126684
0.000106314
8.87495e-05
7.3498e-05
6.02102e-05
4.86537e-05
3.86784e-05
3.01808e-05
2.30712e-05
1.72519e-05
1.26051e-05
8.99224e-06
6.26067e-06
4.25359e-06
2.82082e-06
1.8271e-06
1.15735e-06
7.18545e-07
4.38943e-07
2.65575e-07
1.60894e-07
9.92833e-08
6.389e-08
4.40062e-08
3.30414e-08
2.70453e-08
2.37438e-08
2.18835e-08
2.07658e-08
2.00128e-08
1.94306e-08
1.8925e-08
1.84528e-08
1.79947e-08
1.75427e-08
1.70932e-08
1.66447e-08
1.61967e-08
1.5749e-08
1.53014e-08
1.48541e-08
1.44068e-08
1.39597e-08
1.35128e-08
1.3066e-08
1.26194e-08
1.2173e-08
1.17268e-08
1.12807e-08
1.08349e-08
1.03893e-08
9.94399e-09
9.49891e-09
9.05409e-09
8.60958e-09
8.16539e-09
7.72161e-09
7.27867e-09
6.83652e-09
6.39502e-09
5.95386e-09
5.51296e-09
5.07264e-09
4.63329e-09
4.193e-09
3.75197e-09
3.30221e-09
2.86893e-09
2.36392e-09
2.11323e-09
1.04861e-09
2.4986e-09
-4.70152e-09
1.3468e-08
-5.37818e-08
7.78333e-08
-2.74974e-07
-8.3881e-07
-8.3881e-07
0
0.0668416
0.060839
0.042293
0.0271276
0.0175004
0.0118522
0.0084921
0.00637033
0.00493629
0.0039108
0.00314667
0.00256045
0.00210112
0.00173542
0.00144065
0.00120072
0.00100393
0.000841525
0.000706839
0.000594636
0.000500717
0.000421649
0.000354604
0.000297283
0.000247871
0.000205
0.000167697
0.000135309
0.000107406
8.3685e-05
6.38782e-05
4.76964e-05
3.47976e-05
2.47848e-05
1.72252e-05
1.16779e-05
7.72269e-06
4.9827e-06
3.13812e-06
1.93103e-06
1.16289e-06
6.87332e-07
4.00752e-07
2.32551e-07
1.36338e-07
8.26634e-08
5.34233e-08
3.7786e-08
2.95203e-08
2.5185e-08
2.28699e-08
2.15453e-08
2.06841e-08
2.00305e-08
1.94671e-08
1.8942e-08
1.8433e-08
1.79308e-08
1.74316e-08
1.69338e-08
1.64369e-08
1.59406e-08
1.54449e-08
1.49497e-08
1.44551e-08
1.39611e-08
1.34676e-08
1.29748e-08
1.24826e-08
1.1991e-08
1.15002e-08
1.10102e-08
1.05211e-08
1.00328e-08
9.54549e-09
9.0592e-09
8.57405e-09
8.09013e-09
7.60772e-09
7.12781e-09
6.65031e-09
6.17466e-09
5.69985e-09
5.2254e-09
4.75234e-09
4.28247e-09
3.8133e-09
3.34452e-09
2.86535e-09
2.41208e-09
1.85912e-09
1.69541e-09
2.20267e-10
2.82591e-09
-9.54263e-09
2.46494e-08
-1.12929e-07
1.88961e-07
-1.40086e-06
-2.39742e-06
-2.39742e-06
0
0.0434614
0.0450425
0.0342517
0.0238914
0.0167607
0.0122648
0.00937333
0.0073933
0.00595022
0.00484991
0.00398642
0.00329629
0.00273792
0.00228216
0.00190764
0.00159822
0.00134151
0.0011278
0.000949363
0.000799948
0.000674403
0.000568425
0.000478417
0.000401409
0.000335023
0.000277443
0.000227354
0.000183855
0.000146346
0.0001144
8.76545e-05
6.57272e-05
4.81742e-05
3.44822e-05
2.40893e-05
1.64189e-05
1.09168e-05
7.08105e-06
4.4821e-06
2.77013e-06
1.67346e-06
9.89971e-07
5.75352e-07
3.30413e-07
1.89428e-07
1.10339e-07
6.70752e-08
4.38995e-08
3.1682e-08
2.53568e-08
2.20844e-08
2.03185e-08
1.92603e-08
1.85197e-08
1.79169e-08
1.73727e-08
1.68532e-08
1.63443e-08
1.58402e-08
1.53387e-08
1.48388e-08
1.43401e-08
1.38427e-08
1.33464e-08
1.28512e-08
1.23572e-08
1.18644e-08
1.13727e-08
1.08823e-08
1.03933e-08
9.90563e-09
9.41949e-09
8.93493e-09
8.45208e-09
7.97104e-09
7.49193e-09
7.01497e-09
6.54032e-09
6.0684e-09
5.60084e-09
5.1376e-09
4.67787e-09
4.21992e-09
3.76276e-09
3.30797e-09
2.85878e-09
2.41312e-09
1.96728e-09
1.51317e-09
1.08005e-09
5.82673e-10
3.89936e-10
-9.52792e-10
1.69176e-09
-1.11049e-08
2.73372e-08
-1.35547e-07
2.67602e-07
-2.15025e-06
-3.17845e-06
-3.17845e-06
0
0.0210569
0.0230875
0.0183629
0.0133674
0.00978216
0.00744491
0.00588656
0.00477602
0.00393347
0.00326684
0.00272648
0.00228252
0.00191492
0.00160905
0.00135369
0.00113997
0.000960785
0.000810341
0.000683869
0.00057739
0.000487539
0.00041145
0.000346683
0.000291194
0.000243327
0.000201796
0.000165659
0.000134259
0.000107154
8.40281e-05
6.46175e-05
4.86517e-05
3.58203e-05
2.57659e-05
1.80954e-05
1.24031e-05
8.29576e-06
5.41465e-06
3.44984e-06
2.14688e-06
1.30639e-06
7.7879e-07
4.56336e-07
2.64346e-07
1.52926e-07
8.99042e-08
5.51797e-08
3.64254e-08
2.64211e-08
2.12006e-08
1.84872e-08
1.70105e-08
1.61068e-08
1.54531e-08
1.4904e-08
1.43978e-08
1.39096e-08
1.34294e-08
1.29534e-08
1.248e-08
1.20086e-08
1.15392e-08
1.10715e-08
1.06055e-08
1.01412e-08
9.67859e-09
9.21773e-09
8.75863e-09
8.30136e-09
7.84601e-09
7.39267e-09
6.94147e-09
6.49251e-09
6.04592e-09
5.60185e-09
5.16045e-09
4.72202e-09
4.28683e-09
3.85522e-09
3.42948e-09
3.01001e-09
2.59594e-09
2.18483e-09
1.77494e-09
1.36813e-09
9.68914e-10
5.76518e-10
1.80434e-10
-2.2943e-10
-6.18159e-10
-1.02412e-09
-1.23494e-09
-2.12916e-09
-4.30494e-10
-8.69215e-09
1.75622e-08
-9.46787e-08
2.03413e-07
-1.60153e-06
-2.26431e-06
-2.26431e-06
0
3.14046e-08
4.67718e-08
4.99922e-08
4.8109e-08
4.54903e-08
4.34727e-08
4.20253e-08
4.09051e-08
3.99881e-08
3.9238e-08
3.86169e-08
3.80401e-08
3.73781e-08
3.649e-08
3.5266e-08
3.36657e-08
3.17399e-08
2.96241e-08
2.75038e-08
2.55629e-08
2.3934e-08
2.26741e-08
2.1769e-08
2.11605e-08
2.07777e-08
2.0558e-08
2.04534e-08
2.04272e-08
2.04478e-08
2.04846e-08
2.05077e-08
2.04909e-08
2.04153e-08
2.02717e-08
2.00597e-08
1.97848e-08
1.94538e-08
1.9073e-08
1.86469e-08
1.81782e-08
1.76665e-08
1.71057e-08
1.6484e-08
1.58001e-08
1.5099e-08
1.4504e-08
1.41489e-08
1.38765e-08
1.35312e-08
1.32259e-08
1.29567e-08
1.26755e-08
1.2354e-08
1.1989e-08
1.15917e-08
1.11758e-08
1.0751e-08
1.03233e-08
9.89552e-09
9.469e-09
9.0443e-09
8.62163e-09
8.20102e-09
7.78246e-09
7.36595e-09
6.95146e-09
6.53901e-09
6.12864e-09
5.72042e-09
5.31443e-09
4.91077e-09
4.50956e-09
4.1109e-09
3.71493e-09
3.3218e-09
2.93166e-09
2.54482e-09
2.16176e-09
1.78238e-09
1.40939e-09
1.04554e-09
6.89375e-10
3.3715e-10
-1.40523e-11
-3.6256e-10
-7.02e-10
-1.03473e-09
-1.3687e-09
-1.70229e-09
-2.0268e-09
-2.32525e-09
-2.59151e-09
-2.84587e-09
-2.98252e-09
-3.09722e-09
-2.9289e-09
-2.77984e-09
-2.34722e-09
-2.01399e-09
-4.43912e-10
-4.43912e-10
0
-0.0210569
-0.0230874
-0.0183628
-0.0133673
-0.00978207
-0.00744482
-0.00588648
-0.00477594
-0.00393339
-0.00326677
-0.00272641
-0.00228245
-0.00191485
-0.00160898
-0.00135362
-0.0011399
-0.000960724
-0.000810284
-0.000683816
-0.00057734
-0.000487492
-0.000411405
-0.000346639
-0.000291152
-0.000243285
-0.000201755
-0.000165617
-0.000134218
-0.000107113
-8.39865e-05
-6.45759e-05
-4.86101e-05
-3.57789e-05
-2.57247e-05
-1.80546e-05
-1.23628e-05
-8.25614e-06
-5.37578e-06
-3.4118e-06
-2.10975e-06
-1.27025e-06
-7.43724e-07
-4.22455e-07
-2.31772e-07
-1.2173e-07
-5.9928e-08
-2.5934e-08
-7.63492e-09
1.87595e-09
6.45972e-09
8.51658e-09
9.32234e-09
9.50955e-09
9.39139e-09
9.12598e-09
8.79289e-09
8.43085e-09
8.05785e-09
7.68178e-09
7.30591e-09
6.9315e-09
6.55899e-09
6.18848e-09
5.81998e-09
5.45346e-09
5.0889e-09
4.72632e-09
4.36573e-09
4.00721e-09
3.65082e-09
3.29665e-09
2.9448e-09
2.59535e-09
2.24841e-09
1.90411e-09
1.56259e-09
1.22409e-09
8.89327e-10
5.57714e-10
2.30538e-10
-7.68112e-11
-3.75401e-10
-6.72067e-10
-9.70042e-10
-1.26789e-09
-1.55742e-09
-1.83995e-09
-2.12407e-09
-2.40234e-09
-2.68509e-09
-2.88612e-09
-3.25751e-09
-2.82957e-09
-5.0215e-09
3.20356e-09
-2.30169e-08
8.97002e-08
-2.0779e-07
1.59784e-06
2.26346e-06
2.26346e-06
0
-0.0434614
-0.0450424
-0.0342517
-0.0238913
-0.0167606
-0.0122647
-0.00937326
-0.00739324
-0.00595015
-0.00484985
-0.00398636
-0.00329622
-0.00273786
-0.0022821
-0.00190758
-0.00159817
-0.00134146
-0.00112775
-0.000949312
-0.0007999
-0.000674357
-0.00056838
-0.000478373
-0.000401365
-0.000334981
-0.000277401
-0.000227311
-0.000183812
-0.000146302
-0.000114357
-8.76111e-05
-6.56839e-05
-4.81309e-05
-3.44392e-05
-2.40467e-05
-1.63768e-05
-1.08753e-05
-7.04025e-06
-4.44207e-06
-2.73095e-06
-1.63518e-06
-9.52655e-07
-5.39069e-07
-2.95262e-07
-1.55546e-07
-7.77078e-08
-3.51957e-08
-1.23973e-08
-5.09913e-10
5.17403e-09
7.60092e-09
8.52061e-09
8.74715e-09
8.65438e-09
8.41691e-09
8.11643e-09
7.79028e-09
7.45484e-09
7.11696e-09
6.77932e-09
6.4429e-09
6.10799e-09
5.77466e-09
5.44288e-09
5.11263e-09
4.78387e-09
4.45663e-09
4.13093e-09
3.80681e-09
3.48432e-09
3.16353e-09
2.84449e-09
2.52727e-09
2.21194e-09
1.89858e-09
1.58731e-09
1.27829e-09
9.72089e-10
6.68839e-10
3.66771e-10
7.94081e-11
-1.86012e-10
-4.52945e-10
-7.23948e-10
-9.97891e-10
-1.26601e-09
-1.52281e-09
-1.78197e-09
-2.03265e-09
-2.30598e-09
-2.44999e-09
-2.9329e-09
-2.06471e-09
-5.51627e-09
7.31849e-09
-3.14157e-08
1.31937e-07
-2.70965e-07
2.14748e-06
3.17772e-06
3.17772e-06
0
-0.0668415
-0.0608389
-0.0422929
-0.0271275
-0.0175004
-0.0118521
-0.00849204
-0.00637027
-0.00493623
-0.00391075
-0.00314662
-0.0025604
-0.00210106
-0.00173537
-0.0014406
-0.00120067
-0.00100388
-0.000841477
-0.000706791
-0.00059459
-0.000500672
-0.000421604
-0.000354559
-0.000297239
-0.000247827
-0.000204956
-0.000167652
-0.000135264
-0.000107361
-8.36396e-05
-6.38327e-05
-4.76509e-05
-3.47521e-05
-2.47396e-05
-1.71803e-05
-1.16334e-05
-7.67875e-06
-4.93937e-06
-3.09548e-06
-1.88913e-06
-1.12177e-06
-6.47044e-07
-3.61313e-07
-1.93986e-07
-9.87483e-08
-4.6206e-08
-1.77487e-08
-2.21983e-09
5.45445e-09
8.76059e-09
1.00709e-08
1.04719e-08
1.04632e-08
1.02698e-08
9.99452e-09
9.68454e-09
9.36083e-09
9.03236e-09
8.70278e-09
8.37348e-09
8.04491e-09
7.71721e-09
7.39039e-09
7.06443e-09
6.73932e-09
6.41504e-09
6.09161e-09
5.76903e-09
5.44734e-09
5.12657e-09
4.80674e-09
4.48789e-09
4.17003e-09
3.85321e-09
3.53746e-09
3.22286e-09
2.90949e-09
2.59774e-09
2.28775e-09
1.97825e-09
1.67155e-09
1.37334e-09
1.08089e-09
7.8859e-10
4.94866e-10
2.03264e-10
-5.12453e-11
-3.13208e-10
-5.7565e-10
-8.75556e-10
-1.03795e-09
-1.58405e-09
-7.23221e-10
-4.11801e-09
7.95115e-09
-2.67005e-08
1.11045e-07
-1.90913e-07
1.39927e-06
2.39682e-06
2.39682e-06
0
-0.0787075
-0.0554406
-0.0327103
-0.0178113
-0.00965826
-0.00557766
-0.00354706
-0.00247028
-0.00183774
-0.00142577
-0.00113504
-0.000918471
-0.000751425
-0.000619583
-0.000513845
-0.000428043
-0.000357801
-0.000299906
-0.000251932
-0.000211993
-0.000178581
-0.000150467
-0.000126638
-0.000106268
-8.87035e-05
-7.34518e-05
-6.01637e-05
-4.8607e-05
-3.86315e-05
-3.01336e-05
-2.30239e-05
-1.72046e-05
-1.25578e-05
-8.94512e-06
-6.21379e-06
-4.20705e-06
-2.7747e-06
-1.78148e-06
-1.11231e-06
-6.74136e-07
-3.95217e-07
-2.22566e-07
-1.18614e-07
-5.77038e-08
-2.2859e-08
-3.12214e-09
6.99436e-09
1.17355e-08
1.39395e-08
1.48252e-08
1.50305e-08
1.49171e-08
1.46598e-08
1.43376e-08
1.39866e-08
1.36233e-08
1.32552e-08
1.28854e-08
1.25151e-08
1.21449e-08
1.17749e-08
1.14052e-08
1.10357e-08
1.06665e-08
1.02975e-08
9.92879e-09
9.56033e-09
9.19212e-09
8.82418e-09
8.45652e-09
8.08913e-09
7.72203e-09
7.35521e-09
6.98868e-09
6.62244e-09
6.25652e-09
5.89092e-09
5.52582e-09
5.16131e-09
4.79669e-09
4.43159e-09
4.06935e-09
3.71008e-09
3.35116e-09
2.99134e-09
2.63126e-09
2.27638e-09
1.92291e-09
1.57209e-09
1.20616e-09
9.02722e-10
4.36874e-10
6.7476e-10
-1.246e-09
5.0591e-09
-1.35135e-08
5.33975e-08
-7.84805e-08
2.74328e-07
8.38342e-07
8.38342e-07
0
0
0
0
0
0
0
0
0
0
0
0
0
0
0
0
0
0
0
0
0
0
0
0
0
0
0
0
0
0
0
0
0
0
0
0
0
0
0
0
0
0
0
0
0
0
0
0
0
0
0
0
0
0
0
0
0
0
0
0
0
0
0
0
0
0
0
0
0
0
0
0
0
0
0
0
0
0
0
0
0
0
0
0
0
0
0
0
0
0
0
0
0
0
0
0
0
0
0
0
0
0
0
0
0
0
0
0
0
0
0
0
0
0
0
0
0
0
0
0
0
0
0
0
0
0
0
0
0
0
0
0
0
0
0
0
0
0
0
0
0
0
0
0
0
0
0
0
0
0
0
0
0
0
0
0
0
0
0
0
0
0
0
0
0
0
0
0
0
0
0
0
0
0
0
0
0
0
0
0
0
0
0
0
0
0
0
0
0
0
0
0
0
0
0
0
0
0
0
0
0
0
0
0
