# vtk DataFile Version 2.0
FlowField
ASCII
DATASET STRUCTURED_GRID
DIMENSIONS 102 13 1 
POINTS 1326 double
0 0 0
0.3 0 0
0.6 0 0
0.9 0 0
1.2 0 0
1.5 0 0
1.8 0 0
2.1 0 0
2.4 0 0
2.7 0 0
3 0 0
3.3 0 0
3.6 0 0
3.9 0 0
4.2 0 0
4.5 0 0
4.8 0 0
5.1 0 0
5.4 0 0
5.7 0 0
6 0 0
6.3 0 0
6.6 0 0
6.9 0 0
7.2 0 0
7.5 0 0
7.8 0 0
8.1 0 0
8.4 0 0
8.7 0 0
9 0 0
9.3 0 0
9.6 0 0
9.9 0 0
10.2 0 0
10.5 0 0
10.8 0 0
11.1 0 0
11.4 0 0
11.7 0 0
12 0 0
12.3 0 0
12.6 0 0
12.9 0 0
13.2 0 0
13.5 0 0
13.8 0 0
14.1 0 0
14.4 0 0
14.7 0 0
15 0 0
15.3 0 0
15.6 0 0
15.9 0 0
16.2 0 0
16.5 0 0
16.8 0 0
17.1 0 0
17.4 0 0
17.7 0 0
18 0 0
18.3 0 0
18.6 0 0
18.9 0 0
19.2 0 0
19.5 0 0
19.8 0 0
20.1 0 0
20.4 0 0
20.7 0 0
21 0 0
21.3 0 0
21.6 0 0
21.9 0 0
22.2 0 0
22.5 0 0
22.8 0 0
23.1 0 0
23.4 0 0
23.7 0 0
24 0 0
24.3 0 0
24.6 0 0
24.9 0 0
25.2 0 0
25.5 0 0
25.8 0 0
26.1 0 0
26.4 0 0
26.7 0 0
27 0 0
27.3 0 0
27.6 0 0
27.9 0 0
28.2 0 0
28.5 0 0
28.8 0 0
29.1 0 0
29.4 0 0
29.7 0 0
30 0 0
30.3 0 0
0 0.1 0
0.3 0.1 0
0.6 0.1 0
0.9 0.1 0
1.2 0.1 0
1.5 0.1 0
1.8 0.1 0
2.1 0.1 0
2.4 0.1 0
2.7 0.1 0
3 0.1 0
3.3 0.1 0
3.6 0.1 0
3.9 0.1 0
4.2 0.1 0
4.5 0.1 0
4.8 0.1 0
5.1 0.1 0
5.4 0.1 0
5.7 0.1 0
6 0.1 0
6.3 0.1 0
6.6 0.1 0
6.9 0.1 0
7.2 0.1 0
7.5 0.1 0
7.8 0.1 0
8.1 0.1 0
8.4 0.1 0
8.7 0.1 0
9 0.1 0
9.3 0.1 0
9.6 0.1 0
9.9 0.1 0
10.2 0.1 0
10.5 0.1 0
10.8 0.1 0
11.1 0.1 0
11.4 0.1 0
11.7 0.1 0
12 0.1 0
12.3 0.1 0
12.6 0.1 0
12.9 0.1 0
13.2 0.1 0
13.5 0.1 0
13.8 0.1 0
14.1 0.1 0
14.4 0.1 0
14.7 0.1 0
15 0.1 0
15.3 0.1 0
15.6 0.1 0
15.9 0.1 0
16.2 0.1 0
16.5 0.1 0
16.8 0.1 0
17.1 0.1 0
17.4 0.1 0
17.7 0.1 0
18 0.1 0
18.3 0.1 0
18.6 0.1 0
18.9 0.1 0
19.2 0.1 0
19.5 0.1 0
19.8 0.1 0
20.1 0.1 0
20.4 0.1 0
20.7 0.1 0
21 0.1 0
21.3 0.1 0
21.6 0.1 0
21.9 0.1 0
22.2 0.1 0
22.5 0.1 0
22.8 0.1 0
23.1 0.1 0
23.4 0.1 0
23.7 0.1 0
24 0.1 0
24.3 0.1 0
24.6 0.1 0
24.9 0.1 0
25.2 0.1 0
25.5 0.1 0
25.8 0.1 0
26.1 0.1 0
26.4 0.1 0
26.7 0.1 0
27 0.1 0
27.3 0.1 0
27.6 0.1 0
27.9 0.1 0
28.2 0.1 0
28.5 0.1 0
28.8 0.1 0
29.1 0.1 0
29.4 0.1 0
29.7 0.1 0
30 0.1 0
30.3 0.1 0
0 0.2 0
0.3 0.2 0
0.6 0.2 0
0.9 0.2 0
1.2 0.2 0
1.5 0.2 0
1.8 0.2 0
2.1 0.2 0
2.4 0.2 0
2.7 0.2 0
3 0.2 0
3.3 0.2 0
3.6 0.2 0
3.9 0.2 0
4.2 0.2 0
4.5 0.2 0
4.8 0.2 0
5.1 0.2 0
5.4 0.2 0
5.7 0.2 0
6 0.2 0
6.3 0.2 0
6.6 0.2 0
6.9 0.2 0
7.2 0.2 0
7.5 0.2 0
7.8 0.2 0
8.1 0.2 0
8.4 0.2 0
8.7 0.2 0
9 0.2 0
9.3 0.2 0
9.6 0.2 0
9.9 0.2 0
10.2 0.2 0
10.5 0.2 0
10.8 0.2 0
11.1 0.2 0
11.4 0.2 0
11.7 0.2 0
12 0.2 0
12.3 0.2 0
12.6 0.2 0
12.9 0.2 0
13.2 0.2 0
13.5 0.2 0
13.8 0.2 0
14.1 0.2 0
14.4 0.2 0
14.7 0.2 0
15 0.2 0
15.3 0.2 0
15.6 0.2 0
15.9 0.2 0
16.2 0.2 0
16.5 0.2 0
16.8 0.2 0
17.1 0.2 0
17.4 0.2 0
17.7 0.2 0
18 0.2 0
18.3 0.2 0
18.6 0.2 0
18.9 0.2 0
19.2 0.2 0
19.5 0.2 0
19.8 0.2 0
20.1 0.2 0
20.4 0.2 0
20.7 0.2 0
21 0.2 0
21.3 0.2 0
21.6 0.2 0
21.9 0.2 0
22.2 0.2 0
22.5 0.2 0
22.8 0.2 0
23.1 0.2 0
23.4 0.2 0
23.7 0.2 0
24 0.2 0
24.3 0.2 0
24.6 0.2 0
24.9 0.2 0
25.2 0.2 0
25.5 0.2 0
25.8 0.2 0
26.1 0.2 0
26.4 0.2 0
26.7 0.2 0
27 0.2 0
27.3 0.2 0
27.6 0.2 0
27.9 0.2 0
28.2 0.2 0
28.5 0.2 0
28.8 0.2 0
29.1 0.2 0
29.4 0.2 0
29.7 0.2 0
30 0.2 0
30.3 0.2 0
0 0.3 0
0.3 0.3 0
0.6 0.3 0
0.9 0.3 0
1.2 0.3 0
1.5 0.3 0
1.8 0.3 0
2.1 0.3 0
2.4 0.3 0
2.7 0.3 0
3 0.3 0
3.3 0.3 0
3.6 0.3 0
3.9 0.3 0
4.2 0.3 0
4.5 0.3 0
4.8 0.3 0
5.1 0.3 0
5.4 0.3 0
5.7 0.3 0
6 0.3 0
6.3 0.3 0
6.6 0.3 0
6.9 0.3 0
7.2 0.3 0
7.5 0.3 0
7.8 0.3 0
8.1 0.3 0
8.4 0.3 0
8.7 0.3 0
9 0.3 0
9.3 0.3 0
9.6 0.3 0
9.9 0.3 0
10.2 0.3 0
10.5 0.3 0
10.8 0.3 0
11.1 0.3 0
11.4 0.3 0
11.7 0.3 0
12 0.3 0
12.3 0.3 0
12.6 0.3 0
12.9 0.3 0
13.2 0.3 0
13.5 0.3 0
13.8 0.3 0
14.1 0.3 0
14.4 0.3 0
14.7 0.3 0
15 0.3 0
15.3 0.3 0
15.6 0.3 0
15.9 0.3 0
16.2 0.3 0
16.5 0.3 0
16.8 0.3 0
17.1 0.3 0
17.4 0.3 0
17.7 0.3 0
18 0.3 0
18.3 0.3 0
18.6 0.3 0
18.9 0.3 0
19.2 0.3 0
19.5 0.3 0
19.8 0.3 0
20.1 0.3 0
20.4 0.3 0
20.7 0.3 0
21 0.3 0
21.3 0.3 0
21.6 0.3 0
21.9 0.3 0
22.2 0.3 0
22.5 0.3 0
22.8 0.3 0
23.1 0.3 0
23.4 0.3 0
23.7 0.3 0
24 0.3 0
24.3 0.3 0
24.6 0.3 0
24.9 0.3 0
25.2 0.3 0
25.5 0.3 0
25.8 0.3 0
26.1 0.3 0
26.4 0.3 0
26.7 0.3 0
27 0.3 0
27.3 0.3 0
27.6 0.3 0
27.9 0.3 0
28.2 0.3 0
28.5 0.3 0
28.8 0.3 0
29.1 0.3 0
29.4 0.3 0
29.7 0.3 0
30 0.3 0
30.3 0.3 0
0 0.4 0
0.3 0.4 0
0.6 0.4 0
0.9 0.4 0
1.2 0.4 0
1.5 0.4 0
1.8 0.4 0
2.1 0.4 0
2.4 0.4 0
2.7 0.4 0
3 0.4 0
3.3 0.4 0
3.6 0.4 0
3.9 0.4 0
4.2 0.4 0
4.5 0.4 0
4.8 0.4 0
5.1 0.4 0
5.4 0.4 0
5.7 0.4 0
6 0.4 0
6.3 0.4 0
6.6 0.4 0
6.9 0.4 0
7.2 0.4 0
7.5 0.4 0
7.8 0.4 0
8.1 0.4 0
8.4 0.4 0
8.7 0.4 0
9 0.4 0
9.3 0.4 0
9.6 0.4 0
9.9 0.4 0
10.2 0.4 0
10.5 0.4 0
10.8 0.4 0
11.1 0.4 0
11.4 0.4 0
11.7 0.4 0
12 0.4 0
12.3 0.4 0
12.6 0.4 0
12.9 0.4 0
13.2 0.4 0
13.5 0.4 0
13.8 0.4 0
14.1 0.4 0
14.4 0.4 0
14.7 0.4 0
15 0.4 0
15.3 0.4 0
15.6 0.4 0
15.9 0.4 0
16.2 0.4 0
16.5 0.4 0
16.8 0.4 0
17.1 0.4 0
17.4 0.4 0
17.7 0.4 0
18 0.4 0
18.3 0.4 0
18.6 0.4 0
18.9 0.4 0
19.2 0.4 0
19.5 0.4 0
19.8 0.4 0
20.1 0.4 0
20.4 0.4 0
20.7 0.4 0
21 0.4 0
21.3 0.4 0
21.6 0.4 0
21.9 0.4 0
22.2 0.4 0
22.5 0.4 0
22.8 0.4 0
23.1 0.4 0
23.4 0.4 0
23.7 0.4 0
24 0.4 0
24.3 0.4 0
24.6 0.4 0
24.9 0.4 0
25.2 0.4 0
25.5 0.4 0
25.8 0.4 0
26.1 0.4 0
26.4 0.4 0
26.7 0.4 0
27 0.4 0
27.3 0.4 0
27.6 0.4 0
27.9 0.4 0
28.2 0.4 0
28.5 0.4 0
28.8 0.4 0
29.1 0.4 0
29.4 0.4 0
29.7 0.4 0
30 0.4 0
30.3 0.4 0
0 0.5 0
0.3 0.5 0
0.6 0.5 0
0.9 0.5 0
1.2 0.5 0
1.5 0.5 0
1.8 0.5 0
2.1 0.5 0
2.4 0.5 0
2.7 0.5 0
3 0.5 0
3.3 0.5 0
3.6 0.5 0
3.9 0.5 0
4.2 0.5 0
4.5 0.5 0
4.8 0.5 0
5.1 0.5 0
5.4 0.5 0
5.7 0.5 0
6 0.5 0
6.3 0.5 0
6.6 0.5 0
6.9 0.5 0
7.2 0.5 0
7.5 0.5 0
7.8 0.5 0
8.1 0.5 0
8.4 0.5 0
8.7 0.5 0
9 0.5 0
9.3 0.5 0
9.6 0.5 0
9.9 0.5 0
10.2 0.5 0
10.5 0.5 0
10.8 0.5 0
11.1 0.5 0
11.4 0.5 0
11.7 0.5 0
12 0.5 0
12.3 0.5 0
12.6 0.5 0
12.9 0.5 0
13.2 0.5 0
13.5 0.5 0
13.8 0.5 0
14.1 0.5 0
14.4 0.5 0
14.7 0.5 0
15 0.5 0
15.3 0.5 0
15.6 0.5 0
15.9 0.5 0
16.2 0.5 0
16.5 0.5 0
16.8 0.5 0
17.1 0.5 0
17.4 0.5 0
17.7 0.5 0
18 0.5 0
18.3 0.5 0
18.6 0.5 0
18.9 0.5 0
19.2 0.5 0
19.5 0.5 0
19.8 0.5 0
20.1 0.5 0
20.4 0.5 0
20.7 0.5 0
21 0.5 0
21.3 0.5 0
21.6 0.5 0
21.9 0.5 0
22.2 0.5 0
22.5 0.5 0
22.8 0.5 0
23.1 0.5 0
23.4 0.5 0
23.7 0.5 0
24 0.5 0
24.3 0.5 0
24.6 0.5 0
24.9 0.5 0
25.2 0.5 0
25.5 0.5 0
25.8 0.5 0
26.1 0.5 0
26.4 0.5 0
26.7 0.5 0
27 0.5 0
27.3 0.5 0
27.6 0.5 0
27.9 0.5 0
28.2 0.5 0
28.5 0.5 0
28.8 0.5 0
29.1 0.5 0
29.4 0.5 0
29.7 0.5 0
30 0.5 0
30.3 0.5 0
0 0.6 0
0.3 0.6 0
0.6 0.6 0
0.9 0.6 0
1.2 0.6 0
1.5 0.6 0
1.8 0.6 0
2.1 0.6 0
2.4 0.6 0
2.7 0.6 0
3 0.6 0
3.3 0.6 0
3.6 0.6 0
3.9 0.6 0
4.2 0.6 0
4.5 0.6 0
4.8 0.6 0
5.1 0.6 0
5.4 0.6 0
5.7 0.6 0
6 0.6 0
6.3 0.6 0
6.6 0.6 0
6.9 0.6 0
7.2 0.6 0
7.5 0.6 0
7.8 0.6 0
8.1 0.6 0
8.4 0.6 0
8.7 0.6 0
9 0.6 0
9.3 0.6 0
9.6 0.6 0
9.9 0.6 0
10.2 0.6 0
10.5 0.6 0
10.8 0.6 0
11.1 0.6 0
11.4 0.6 0
11.7 0.6 0
12 0.6 0
12.3 0.6 0
12.6 0.6 0
12.9 0.6 0
13.2 0.6 0
13.5 0.6 0
13.8 0.6 0
14.1 0.6 0
14.4 0.6 0
14.7 0.6 0
15 0.6 0
15.3 0.6 0
15.6 0.6 0
15.9 0.6 0
16.2 0.6 0
16.5 0.6 0
16.8 0.6 0
17.1 0.6 0
17.4 0.6 0
17.7 0.6 0
18 0.6 0
18.3 0.6 0
18.6 0.6 0
18.9 0.6 0
19.2 0.6 0
19.5 0.6 0
19.8 0.6 0
20.1 0.6 0
20.4 0.6 0
20.7 0.6 0
21 0.6 0
21.3 0.6 0
21.6 0.6 0
21.9 0.6 0
22.2 0.6 0
22.5 0.6 0
22.8 0.6 0
23.1 0.6 0
23.4 0.6 0
23.7 0.6 0
24 0.6 0
24.3 0.6 0
24.6 0.6 0
24.9 0.6 0
25.2 0.6 0
25.5 0.6 0
25.8 0.6 0
26.1 0.6 0
26.4 0.6 0
26.7 0.6 0
27 0.6 0
27.3 0.6 0
27.6 0.6 0
27.9 0.6 0
28.2 0.6 0
28.5 0.6 0
28.8 0.6 0
29.1 0.6 0
29.4 0.6 0
29.7 0.6 0
30 0.6 0
30.3 0.6 0
0 0.7 0
0.3 0.7 0
0.6 0.7 0
0.9 0.7 0
1.2 0.7 0
1.5 0.7 0
1.8 0.7 0
2.1 0.7 0
2.4 0.7 0
2.7 0.7 0
3 0.7 0
3.3 0.7 0
3.6 0.7 0
3.9 0.7 0
4.2 0.7 0
4.5 0.7 0
4.8 0.7 0
5.1 0.7 0
5.4 0.7 0
5.7 0.7 0
6 0.7 0
6.3 0.7 0
6.6 0.7 0
6.9 0.7 0
7.2 0.7 0
7.5 0.7 0
7.8 0.7 0
8.1 0.7 0
8.4 0.7 0
8.7 0.7 0
9 0.7 0
9.3 0.7 0
9.6 0.7 0
9.9 0.7 0
10.2 0.7 0
10.5 0.7 0
10.8 0.7 0
11.1 0.7 0
11.4 0.7 0
11.7 0.7 0
12 0.7 0
12.3 0.7 0
12.6 0.7 0
12.9 0.7 0
13.2 0.7 0
13.5 0.7 0
13.8 0.7 0
14.1 0.7 0
14.4 0.7 0
14.7 0.7 0
15 0.7 0
15.3 0.7 0
15.6 0.7 0
15.9 0.7 0
16.2 0.7 0
16.5 0.7 0
16.8 0.7 0
17.1 0.7 0
17.4 0.7 0
17.7 0.7 0
18 0.7 0
18.3 0.7 0
18.6 0.7 0
18.9 0.7 0
19.2 0.7 0
19.5 0.7 0
19.8 0.7 0
20.1 0.7 0
20.4 0.7 0
20.7 0.7 0
21 0.7 0
21.3 0.7 0
21.6 0.7 0
21.9 0.7 0
22.2 0.7 0
22.5 0.7 0
22.8 0.7 0
23.1 0.7 0
23.4 0.7 0
23.7 0.7 0
24 0.7 0
24.3 0.7 0
24.6 0.7 0
24.9 0.7 0
25.2 0.7 0
25.5 0.7 0
25.8 0.7 0
26.1 0.7 0
26.4 0.7 0
26.7 0.7 0
27 0.7 0
27.3 0.7 0
27.6 0.7 0
27.9 0.7 0
28.2 0.7 0
28.5 0.7 0
28.8 0.7 0
29.1 0.7 0
29.4 0.7 0
29.7 0.7 0
30 0.7 0
30.3 0.7 0
0 0.8 0
0.3 0.8 0
0.6 0.8 0
0.9 0.8 0
1.2 0.8 0
1.5 0.8 0
1.8 0.8 0
2.1 0.8 0
2.4 0.8 0
2.7 0.8 0
3 0.8 0
3.3 0.8 0
3.6 0.8 0
3.9 0.8 0
4.2 0.8 0
4.5 0.8 0
4.8 0.8 0
5.1 0.8 0
5.4 0.8 0
5.7 0.8 0
6 0.8 0
6.3 0.8 0
6.6 0.8 0
6.9 0.8 0
7.2 0.8 0
7.5 0.8 0
7.8 0.8 0
8.1 0.8 0
8.4 0.8 0
8.7 0.8 0
9 0.8 0
9.3 0.8 0
9.6 0.8 0
9.9 0.8 0
10.2 0.8 0
10.5 0.8 0
10.8 0.8 0
11.1 0.8 0
11.4 0.8 0
11.7 0.8 0
12 0.8 0
12.3 0.8 0
12.6 0.8 0
12.9 0.8 0
13.2 0.8 0
13.5 0.8 0
13.8 0.8 0
14.1 0.8 0
14.4 0.8 0
14.7 0.8 0
15 0.8 0
15.3 0.8 0
15.6 0.8 0
15.9 0.8 0
16.2 0.8 0
16.5 0.8 0
16.8 0.8 0
17.1 0.8 0
17.4 0.8 0
17.7 0.8 0
18 0.8 0
18.3 0.8 0
18.6 0.8 0
18.9 0.8 0
19.2 0.8 0
19.5 0.8 0
19.8 0.8 0
20.1 0.8 0
20.4 0.8 0
20.7 0.8 0
21 0.8 0
21.3 0.8 0
21.6 0.8 0
21.9 0.8 0
22.2 0.8 0
22.5 0.8 0
22.8 0.8 0
23.1 0.8 0
23.4 0.8 0
23.7 0.8 0
24 0.8 0
24.3 0.8 0
24.6 0.8 0
24.9 0.8 0
25.2 0.8 0
25.5 0.8 0
25.8 0.8 0
26.1 0.8 0
26.4 0.8 0
26.7 0.8 0
27 0.8 0
27.3 0.8 0
27.6 0.8 0
27.9 0.8 0
28.2 0.8 0
28.5 0.8 0
28.8 0.8 0
29.1 0.8 0
29.4 0.8 0
29.7 0.8 0
30 0.8 0
30.3 0.8 0
0 0.9 0
0.3 0.9 0
0.6 0.9 0
0.9 0.9 0
1.2 0.9 0
1.5 0.9 0
1.8 0.9 0
2.1 0.9 0
2.4 0.9 0
2.7 0.9 0
3 0.9 0
3.3 0.9 0
3.6 0.9 0
3.9 0.9 0
4.2 0.9 0
4.5 0.9 0
4.8 0.9 0
5.1 0.9 0
5.4 0.9 0
5.7 0.9 0
6 0.9 0
6.3 0.9 0
6.6 0.9 0
6.9 0.9 0
7.2 0.9 0
7.5 0.9 0
7.8 0.9 0
8.1 0.9 0
8.4 0.9 0
8.7 0.9 0
9 0.9 0
9.3 0.9 0
9.6 0.9 0
9.9 0.9 0
10.2 0.9 0
10.5 0.9 0
10.8 0.9 0
11.1 0.9 0
11.4 0.9 0
11.7 0.9 0
12 0.9 0
12.3 0.9 0
12.6 0.9 0
12.9 0.9 0
13.2 0.9 0
13.5 0.9 0
13.8 0.9 0
14.1 0.9 0
14.4 0.9 0
14.7 0.9 0
15 0.9 0
15.3 0.9 0
15.6 0.9 0
15.9 0.9 0
16.2 0.9 0
16.5 0.9 0
16.8 0.9 0
17.1 0.9 0
17.4 0.9 0
17.7 0.9 0
18 0.9 0
18.3 0.9 0
18.6 0.9 0
18.9 0.9 0
19.2 0.9 0
19.5 0.9 0
19.8 0.9 0
20.1 0.9 0
20.4 0.9 0
20.7 0.9 0
21 0.9 0
21.3 0.9 0
21.6 0.9 0
21.9 0.9 0
22.2 0.9 0
22.5 0.9 0
22.8 0.9 0
23.1 0.9 0
23.4 0.9 0
23.7 0.9 0
24 0.9 0
24.3 0.9 0
24.6 0.9 0
24.9 0.9 0
25.2 0.9 0
25.5 0.9 0
25.8 0.9 0
26.1 0.9 0
26.4 0.9 0
26.7 0.9 0
27 0.9 0
27.3 0.9 0
27.6 0.9 0
27.9 0.9 0
28.2 0.9 0
28.5 0.9 0
28.8 0.9 0
29.1 0.9 0
29.4 0.9 0
29.7 0.9 0
30 0.9 0
30.3 0.9 0
0 1 0
0.3 1 0
0.6 1 0
0.9 1 0
1.2 1 0
1.5 1 0
1.8 1 0
2.1 1 0
2.4 1 0
2.7 1 0
3 1 0
3.3 1 0
3.6 1 0
3.9 1 0
4.2 1 0
4.5 1 0
4.8 1 0
5.1 1 0
5.4 1 0
5.7 1 0
6 1 0
6.3 1 0
6.6 1 0
6.9 1 0
7.2 1 0
7.5 1 0
7.8 1 0
8.1 1 0
8.4 1 0
8.7 1 0
9 1 0
9.3 1 0
9.6 1 0
9.9 1 0
10.2 1 0
10.5 1 0
10.8 1 0
11.1 1 0
11.4 1 0
11.7 1 0
12 1 0
12.3 1 0
12.6 1 0
12.9 1 0
13.2 1 0
13.5 1 0
13.8 1 0
14.1 1 0
14.4 1 0
14.7 1 0
15 1 0
15.3 1 0
15.6 1 0
15.9 1 0
16.2 1 0
16.5 1 0
16.8 1 0
17.1 1 0
17.4 1 0
17.7 1 0
18 1 0
18.3 1 0
18.6 1 0
18.9 1 0
19.2 1 0
19.5 1 0
19.8 1 0
20.1 1 0
20.4 1 0
20.7 1 0
21 1 0
21.3 1 0
21.6 1 0
21.9 1 0
22.2 1 0
22.5 1 0
22.8 1 0
23.1 1 0
23.4 1 0
23.7 1 0
24 1 0
24.3 1 0
24.6 1 0
24.9 1 0
25.2 1 0
25.5 1 0
25.8 1 0
26.1 1 0
26.4 1 0
26.7 1 0
27 1 0
27.3 1 0
27.6 1 0
27.9 1 0
28.2 1 0
28.5 1 0
28.8 1 0
29.1 1 0
29.4 1 0
29.7 1 0
30 1 0
30.3 1 0
0 1.1 0
0.3 1.1 0
0.6 1.1 0
0.9 1.1 0
1.2 1.1 0
1.5 1.1 0
1.8 1.1 0
2.1 1.1 0
2.4 1.1 0
2.7 1.1 0
3 1.1 0
3.3 1.1 0
3.6 1.1 0
3.9 1.1 0
4.2 1.1 0
4.5 1.1 0
4.8 1.1 0
5.1 1.1 0
5.4 1.1 0
5.7 1.1 0
6 1.1 0
6.3 1.1 0
6.6 1.1 0
6.9 1.1 0
7.2 1.1 0
7.5 1.1 0
7.8 1.1 0
8.1 1.1 0
8.4 1.1 0
8.7 1.1 0
9 1.1 0
9.3 1.1 0
9.6 1.1 0
9.9 1.1 0
10.2 1.1 0
10.5 1.1 0
10.8 1.1 0
11.1 1.1 0
11.4 1.1 0
11.7 1.1 0
12 1.1 0
12.3 1.1 0
12.6 1.1 0
12.9 1.1 0
13.2 1.1 0
13.5 1.1 0
13.8 1.1 0
14.1 1.1 0
14.4 1.1 0
14.7 1.1 0
15 1.1 0
15.3 1.1 0
15.6 1.1 0
15.9 1.1 0
16.2 1.1 0
16.5 1.1 0
16.8 1.1 0
17.1 1.1 0
17.4 1.1 0
17.7 1.1 0
18 1.1 0
18.3 1.1 0
18.6 1.1 0
18.9 1.1 0
19.2 1.1 0
19.5 1.1 0
19.8 1.1 0
20.1 1.1 0
20.4 1.1 0
20.7 1.1 0
21 1.1 0
21.3 1.1 0
21.6 1.1 0
21.9 1.1 0
22.2 1.1 0
22.5 1.1 0
22.8 1.1 0
23.1 1.1 0
23.4 1.1 0
23.7 1.1 0
24 1.1 0
24.3 1.1 0
24.6 1.1 0
24.9 1.1 0
25.2 1.1 0
25.5 1.1 0
25.8 1.1 0
26.1 1.1 0
26.4 1.1 0
26.7 1.1 0
27 1.1 0
27.3 1.1 0
27.6 1.1 0
27.9 1.1 0
28.2 1.1 0
28.5 1.1 0
28.8 1.1 0
29.1 1.1 0
29.4 1.1 0
29.7 1.1 0
30 1.1 0
30.3 1.1 0
0 1.2 0
0.3 1.2 0
0.6 1.2 0
0.9 1.2 0
1.2 1.2 0
1.5 1.2 0
1.8 1.2 0
2.1 1.2 0
2.4 1.2 0
2.7 1.2 0
3 1.2 0
3.3 1.2 0
3.6 1.2 0
3.9 1.2 0
4.2 1.2 0
4.5 1.2 0
4.8 1.2 0
5.1 1.2 0
5.4 1.2 0
5.7 1.2 0
6 1.2 0
6.3 1.2 0
6.6 1.2 0
6.9 1.2 0
7.2 1.2 0
7.5 1.2 0
7.8 1.2 0
8.1 1.2 0
8.4 1.2 0
8.7 1.2 0
9 1.2 0
9.3 1.2 0
9.6 1.2 0
9.9 1.2 0
10.2 1.2 0
10.5 1.2 0
10.8 1.2 0
11.1 1.2 0
11.4 1.2 0
11.7 1.2 0
12 1.2 0
12.3 1.2 0
12.6 1.2 0
12.9 1.2 0
13.2 1.2 0
13.5 1.2 0
13.8 1.2 0
14.1 1.2 0
14.4 1.2 0
14.7 1.2 0
15 1.2 0
15.3 1.2 0
15.6 1.2 0
15.9 1.2 0
16.2 1.2 0
16.5 1.2 0
16.8 1.2 0
17.1 1.2 0
17.4 1.2 0
17.7 1.2 0
18 1.2 0
18.3 1.2 0
18.6 1.2 0
18.9 1.2 0
19.2 1.2 0
19.5 1.2 0
19.8 1.2 0
20.1 1.2 0
20.4 1.2 0
20.7 1.2 0
21 1.2 0
21.3 1.2 0
21.6 1.2 0
21.9 1.2 0
22.2 1.2 0
22.5 1.2 0
22.8 1.2 0
23.1 1.2 0
23.4 1.2 0
23.7 1.2 0
24 1.2 0
24.3 1.2 0
24.6 1.2 0
24.9 1.2 0
25.2 1.2 0
25.5 1.2 0
25.8 1.2 0
26.1 1.2 0
26.4 1.2 0
26.7 1.2 0
27 1.2 0
27.3 1.2 0
27.6 1.2 0
27.9 1.2 0
28.2 1.2 0
28.5 1.2 0
28.8 1.2 0
29.1 1.2 0
29.4 1.2 0
29.7 1.2 0
30 1.2 0
30.3 1.2 0

POINT_DATA 1326

SCALARS p double
LOOKUP_TABLE default
1.3098
1.3098
1.24496
1.20072
1.1609
1.12433
1.09127
1.06175
1.03555
1.01238
0.991914
0.973736
0.957366
0.942301
0.928086
0.914367
0.900904
0.887552
0.874236
0.860927
0.847616
0.834302
0.820985
0.807668
0.79435
0.781032
0.767713
0.754395
0.741076
0.727758
0.71444
0.701121
0.687803
0.674485
0.661166
0.647848
0.63453
0.621211
0.607893
0.594575
0.581256
0.567938
0.554619
0.541301
0.527983
0.514664
0.501346
0.488028
0.474709
0.461391
0.448073
0.434754
0.421436
0.408118
0.394799
0.381481
0.368163
0.354844
0.341526
0.328208
0.314889
0.301571
0.288253
0.274934
0.261616
0.248298
0.234979
0.221661
0.208343
0.195024
0.181706
0.168388
0.155069
0.141751
0.128433
0.115114
0.101796
0.0884776
0.0751592
0.0618409
0.0485225
0.0352041
0.0218858
0.00856743
-0.00475093
-0.0180693
-0.0313877
-0.044706
-0.0580244
-0.0713428
-0.0846611
-0.0979795
-0.111298
-0.124616
-0.137935
-0.151253
-0.164571
-0.177888
-0.191208
-0.204524
-0.217744
0.217744
1.3098
1.3098
1.24496
1.20072
1.1609
1.12433
1.09127
1.06175
1.03555
1.01238
0.991914
0.973736
0.957366
0.942301
0.928086
0.914367
0.900904
0.887552
0.874236
0.860927
0.847616
0.834302
0.820985
0.807668
0.79435
0.781032
0.767713
0.754395
0.741076
0.727758
0.71444
0.701121
0.687803
0.674485
0.661166
0.647848
0.63453
0.621211
0.607893
0.594575
0.581256
0.567938
0.554619
0.541301
0.527983
0.514664
0.501346
0.488028
0.474709
0.461391
0.448073
0.434754
0.421436
0.408118
0.394799
0.381481
0.368163
0.354844
0.341526
0.328208
0.314889
0.301571
0.288253
0.274934
0.261616
0.248298
0.234979
0.221661
0.208343
0.195024
0.181706
0.168388
0.155069
0.141751
0.128433
0.115114
0.101796
0.0884776
0.0751592
0.0618409
0.0485225
0.0352041
0.0218858
0.00856743
-0.00475093
-0.0180693
-0.0313877
-0.044706
-0.0580244
-0.0713428
-0.0846611
-0.0979795
-0.111298
-0.124616
-0.137935
-0.151253
-0.164571
-0.177888
-0.191208
-0.204524
-0.217744
0.217744
1.28886
1.28886
1.24297
1.20095
1.16161
1.12513
1.09201
1.06238
1.03604
1.01274
0.992144
0.973871
0.957436
0.942331
0.928096
0.914369
0.900903
0.887551
0.874235
0.860927
0.847616
0.834302
0.820985
0.807668
0.79435
0.781032
0.767713
0.754395
0.741076
0.727758
0.71444
0.701121
0.687803
0.674485
0.661166
0.647848
0.63453
0.621211
0.607893
0.594575
0.581256
0.567938
0.554619
0.541301
0.527983
0.514664
0.501346
0.488028
0.474709
0.461391
0.448073
0.434754
0.421436
0.408118
0.394799
0.381481
0.368163
0.354844
0.341526
0.328208
0.314889
0.301571
0.288253
0.274934
0.261616
0.248298
0.234979
0.221661
0.208343
0.195024
0.181706
0.168388
0.155069
0.141751
0.128433
0.115114
0.101796
0.0884776
0.0751592
0.0618409
0.0485225
0.0352041
0.0218858
0.00856743
-0.00475093
-0.0180693
-0.0313877
-0.044706
-0.0580244
-0.0713428
-0.0846611
-0.0979795
-0.111298
-0.124616
-0.137935
-0.151253
-0.164571
-0.177887
-0.191205
-0.204521
-0.217743
0.217743
1.27388
1.27388
1.24009
1.20118
1.16272
1.12645
1.09328
1.06348
1.03694
1.01344
0.992664
0.97423
0.957666
0.942466
0.928168
0.914403
0.900917
0.887555
0.874236
0.860926
0.847615
0.834301
0.820985
0.807668
0.79435
0.781032
0.767713
0.754395
0.741076
0.727758
0.71444
0.701121
0.687803
0.674485
0.661166
0.647848
0.63453
0.621211
0.607893
0.594575
0.581256
0.567938
0.554619
0.541301
0.527983
0.514664
0.501346
0.488028
0.474709
0.461391
0.448073
0.434754
0.421436
0.408118
0.394799
0.381481
0.368163
0.354844
0.341526
0.328208
0.314889
0.301571
0.288253
0.274934
0.261616
0.248298
0.234979
0.221661
0.208343
0.195024
0.181706
0.168388
0.155069
0.141751
0.128433
0.115114
0.101796
0.0884776
0.0751592
0.0618409
0.0485225
0.0352041
0.0218858
0.00856743
-0.00475093
-0.0180693
-0.0313877
-0.044706
-0.0580244
-0.0713428
-0.0846611
-0.0979795
-0.111298
-0.124616
-0.137934
-0.151252
-0.16457
-0.177883
-0.191193
-0.204482
-0.21773
0.21773
1.26431
1.26431
1.2376
1.20129
1.16367
1.12765
1.09447
1.06454
1.03786
1.0142
0.993262
0.974675
0.957975
0.942664
0.928283
0.914464
0.900945
0.887565
0.874239
0.860926
0.847614
0.834301
0.820985
0.807667
0.79435
0.781031
0.767713
0.754395
0.741076
0.727758
0.71444
0.701121
0.687803
0.674485
0.661166
0.647848
0.63453
0.621211
0.607893
0.594575
0.581256
0.567938
0.554619
0.541301
0.527983
0.514664
0.501346
0.488028
0.474709
0.461391
0.448073
0.434754
0.421436
0.408118
0.394799
0.381481
0.368163
0.354844
0.341526
0.328208
0.314889
0.301571
0.288253
0.274934
0.261616
0.248298
0.234979
0.221661
0.208343
0.195024
0.181706
0.168388
0.155069
0.141751
0.128433
0.115114
0.101796
0.0884776
0.0751592
0.0618409
0.0485225
0.0352041
0.0218858
0.00856743
-0.00475093
-0.0180693
-0.0313877
-0.044706
-0.0580244
-0.0713428
-0.0846611
-0.0979795
-0.111298
-0.124616
-0.137934
-0.151252
-0.164568
-0.177879
-0.191178
-0.204427
-0.217711
0.217711
1.25899
1.25899
1.23598
1.20131
1.16426
1.12841
1.09524
1.06526
1.03848
1.01472
0.993685
0.974999
0.958206
0.942815
0.928374
0.914512
0.900968
0.887574
0.874241
0.860926
0.847614
0.8343
0.820984
0.807667
0.79435
0.781031
0.767713
0.754395
0.741076
0.727758
0.71444
0.701121
0.687803
0.674485
0.661166
0.647848
0.63453
0.621211
0.607893
0.594575
0.581256
0.567938
0.554619
0.541301
0.527983
0.514664
0.501346
0.488028
0.474709
0.461391
0.448073
0.434754
0.421436
0.408118
0.394799
0.381481
0.368163
0.354844
0.341526
0.328208
0.314889
0.301571
0.288253
0.274934
0.261616
0.248298
0.234979
0.221661
0.208343
0.195024
0.181706
0.168388
0.155069
0.141751
0.128433
0.115114
0.101796
0.0884776
0.0751592
0.0618409
0.0485225
0.0352041
0.0218858
0.00856743
-0.00475093
-0.0180693
-0.0313877
-0.044706
-0.0580244
-0.0713428
-0.0846611
-0.0979795
-0.111298
-0.124616
-0.137934
-0.151252
-0.164567
-0.177876
-0.191166
-0.204385
-0.217696
0.217696
1.2573
1.2573
1.23543
1.20132
1.16448
1.12869
1.09552
1.06551
1.0387
1.01491
0.993836
0.975115
0.958288
0.942869
0.928406
0.91453
0.900976
0.887578
0.874242
0.860927
0.847614
0.8343
0.820984
0.807667
0.79435
0.781031
0.767713
0.754395
0.741076
0.727758
0.71444
0.701121
0.687803
0.674485
0.661166
0.647848
0.63453
0.621211
0.607893
0.594575
0.581256
0.567938
0.554619
0.541301
0.527983
0.514664
0.501346
0.488028
0.474709
0.461391
0.448073
0.434754
0.421436
0.408118
0.394799
0.381481
0.368163
0.354844
0.341526
0.328208
0.314889
0.301571
0.288253
0.274934
0.261616
0.248298
0.234979
0.221661
0.208343
0.195024
0.181706
0.168388
0.155069
0.141751
0.128433
0.115114
0.101796
0.0884776
0.0751592
0.0618409
0.0485225
0.0352041
0.0218858
0.00856743
-0.00475093
-0.0180693
-0.0313877
-0.044706
-0.0580244
-0.0713428
-0.0846611
-0.0979795
-0.111298
-0.124616
-0.137934
-0.151252
-0.164567
-0.177875
-0.191162
-0.20437
-0.21769
0.21769
1.25899
1.25899
1.23598
1.20131
1.16426
1.12841
1.09524
1.06526
1.03848
1.01472
0.993685
0.974999
0.958206
0.942815
0.928374
0.914512
0.900968
0.887574
0.874241
0.860926
0.847614
0.8343
0.820984
0.807667
0.79435
0.781031
0.767713
0.754395
0.741076
0.727758
0.71444
0.701121
0.687803
0.674485
0.661166
0.647848
0.63453
0.621211
0.607893
0.594575
0.581256
0.567938
0.554619
0.541301
0.527983
0.514664
0.501346
0.488028
0.474709
0.461391
0.448073
0.434754
0.421436
0.408118
0.394799
0.381481
0.368163
0.354844
0.341526
0.328208
0.314889
0.301571
0.288253
0.274934
0.261616
0.248298
0.234979
0.221661
0.208343
0.195024
0.181706
0.168388
0.155069
0.141751
0.128433
0.115114
0.101796
0.0884776
0.0751592
0.0618409
0.0485225
0.0352041
0.0218858
0.00856743
-0.00475093
-0.0180693
-0.0313877
-0.044706
-0.0580244
-0.0713428
-0.0846611
-0.0979795
-0.111298
-0.124616
-0.137934
-0.151252
-0.164567
-0.177876
-0.191166
-0.204385
-0.217696
0.217696
1.26431
1.26431
1.2376
1.20129
1.16367
1.12765
1.09447
1.06454
1.03786
1.0142
0.993262
0.974675
0.957975
0.942664
0.928283
0.914464
0.900945
0.887565
0.874239
0.860926
0.847614
0.834301
0.820985
0.807667
0.79435
0.781031
0.767713
0.754395
0.741076
0.727758
0.71444
0.701121
0.687803
0.674485
0.661166
0.647848
0.63453
0.621211
0.607893
0.594575
0.581256
0.567938
0.554619
0.541301
0.527983
0.514664
0.501346
0.488028
0.474709
0.461391
0.448073
0.434754
0.421436
0.408118
0.394799
0.381481
0.368163
0.354844
0.341526
0.328208
0.314889
0.301571
0.288253
0.274934
0.261616
0.248298
0.234979
0.221661
0.208343
0.195024
0.181706
0.168388
0.155069
0.141751
0.128433
0.115114
0.101796
0.0884776
0.0751592
0.0618409
0.0485225
0.0352041
0.0218858
0.00856743
-0.00475093
-0.0180693
-0.0313877
-0.044706
-0.0580244
-0.0713428
-0.0846611
-0.0979795
-0.111298
-0.124616
-0.137934
-0.151252
-0.164568
-0.177879
-0.191178
-0.204427
-0.217711
0.217711
1.27388
1.27388
1.24009
1.20118
1.16272
1.12645
1.09328
1.06348
1.03694
1.01344
0.992664
0.97423
0.957666
0.942466
0.928168
0.914403
0.900917
0.887555
0.874236
0.860926
0.847615
0.834301
0.820985
0.807668
0.79435
0.781032
0.767713
0.754395
0.741076
0.727758
0.71444
0.701121
0.687803
0.674485
0.661166
0.647848
0.63453
0.621211
0.607893
0.594575
0.581256
0.567938
0.554619
0.541301
0.527983
0.514664
0.501346
0.488028
0.474709
0.461391
0.448073
0.434754
0.421436
0.408118
0.394799
0.381481
0.368163
0.354844
0.341526
0.328208
0.314889
0.301571
0.288253
0.274934
0.261616
0.248298
0.234979
0.221661
0.208343
0.195024
0.181706
0.168388
0.155069
0.141751
0.128433
0.115114
0.101796
0.0884776
0.0751592
0.0618409
0.0485225
0.0352041
0.0218858
0.00856743
-0.00475093
-0.0180693
-0.0313877
-0.044706
-0.0580244
-0.0713428
-0.0846611
-0.0979795
-0.111298
-0.124616
-0.137934
-0.151252
-0.16457
-0.177883
-0.191193
-0.204482
-0.21773
0.21773
1.28886
1.28886
1.24297
1.20095
1.16161
1.12513
1.09201
1.06238
1.03604
1.01274
0.992144
0.973871
0.957436
0.942331
0.928096
0.914369
0.900903
0.887551
0.874235
0.860927
0.847616
0.834302
0.820985
0.807668
0.79435
0.781032
0.767713
0.754395
0.741076
0.727758
0.71444
0.701121
0.687803
0.674485
0.661166
0.647848
0.63453
0.621211
0.607893
0.594575
0.581256
0.567938
0.554619
0.541301
0.527983
0.514664
0.501346
0.488028
0.474709
0.461391
0.448073
0.434754
0.421436
0.408118
0.394799
0.381481
0.368163
0.354844
0.341526
0.328208
0.314889
0.301571
0.288253
0.274934
0.261616
0.248298
0.234979
0.221661
0.208343
0.195024
0.181706
0.168388
0.155069
0.141751
0.128433
0.115114
0.101796
0.0884776
0.0751592
0.0618409
0.0485225
0.0352041
0.0218858
0.00856743
-0.00475094
-0.0180693
-0.0313877
-0.044706
-0.0580244
-0.0713428
-0.0846611
-0.0979795
-0.111298
-0.124616
-0.137935
-0.151253
-0.164571
-0.177887
-0.191205
-0.204521
-0.217743
0.217743
1.3098
1.3098
1.24496
1.20072
1.1609
1.12433
1.09127
1.06175
1.03555
1.01238
0.991914
0.973736
0.957366
0.942301
0.928086
0.914367
0.900904
0.887552
0.874236
0.860927
0.847616
0.834302
0.820985
0.807668
0.79435
0.781032
0.767713
0.754395
0.741076
0.727758
0.71444
0.701121
0.687803
0.674485
0.661166
0.647848
0.63453
0.621211
0.607893
0.594575
0.581256
0.567938
0.554619
0.541301
0.527983
0.514664
0.501346
0.488028
0.474709
0.461391
0.448073
0.434754
0.421436
0.408118
0.394799
0.381481
0.368163
0.354844
0.341526
0.328208
0.314889
0.301571
0.288253
0.274934
0.261616
0.248298
0.234979
0.221661
0.208343
0.195024
0.181706
0.168388
0.155069
0.141751
0.128433
0.115114
0.101796
0.0884776
0.0751592
0.0618409
0.0485225
0.0352041
0.0218858
0.00856743
-0.00475094
-0.0180693
-0.0313877
-0.044706
-0.0580244
-0.0713428
-0.0846611
-0.0979795
-0.111298
-0.124616
-0.137935
-0.151253
-0.164571
-0.177888
-0.191208
-0.204524
-0.217744
0.217744
1.3098
1.3098
1.24496
1.20072
1.1609
1.12433
1.09127
1.06175
1.03555
1.01238
0.991914
0.973736
0.957366
0.942301
0.928086
0.914367
0.900904
0.887552
0.874236
0.860927
0.847616
0.834302
0.820985
0.807668
0.79435
0.781032
0.767713
0.754395
0.741076
0.727758
0.71444
0.701121
0.687803
0.674485
0.661166
0.647848
0.63453
0.621211
0.607893
0.594575
0.581256
0.567938
0.554619
0.541301
0.527983
0.514664
0.501346
0.488028
0.474709
0.461391
0.448073
0.434754
0.421436
0.408118
0.394799
0.381481
0.368163
0.354844
0.341526
0.328208
0.314889
0.301571
0.288253
0.274934
0.261616
0.248298
0.234979
0.221661
0.208343
0.195024
0.181706
0.168388
0.155069
0.141751
0.128433
0.115114
0.101796
0.0884776
0.0751592
0.0618409
0.0485225
0.0352041
0.0218858
0.00856743
-0.00475094
-0.0180693
-0.0313877
-0.044706
-0.0580244
-0.0713428
-0.0846611
-0.0979795
-0.111298
-0.124616
-0.137935
-0.151253
-0.164571
-0.177888
-0.191208
-0.204524
-0.217744
0.217744
