# vtk DataFile Version 2.0
FlowField
ASCII
DATASET STRUCTURED_GRID
DIMENSIONS 102 1 12 
POINTS 1224 double
0 0 0
0.4 0 0
0.8 0 0
1.2 0 0
1.6 0 0
2 0 0
2.4 0 0
2.8 0 0
3.2 0 0
3.6 0 0
4 0 0
4.4 0 0
4.8 0 0
5.2 0 0
5.6 0 0
6 0 0
6.4 0 0
6.8 0 0
7.2 0 0
7.6 0 0
8 0 0
8.4 0 0
8.8 0 0
9.2 0 0
9.6 0 0
10 0 0
10.4 0 0
10.8 0 0
11.2 0 0
11.6 0 0
12 0 0
12.4 0 0
12.8 0 0
13.2 0 0
13.6 0 0
14 0 0
14.4 0 0
14.8 0 0
15.2 0 0
15.6 0 0
16 0 0
16.4 0 0
16.8 0 0
17.2 0 0
17.6 0 0
18 0 0
18.4 0 0
18.8 0 0
19.2 0 0
19.6 0 0
20 0 0
20.4 0 0
20.8 0 0
21.2 0 0
21.6 0 0
22 0 0
22.4 0 0
22.8 0 0
23.2 0 0
23.6 0 0
24 0 0
24.4 0 0
24.8 0 0
25.2 0 0
25.6 0 0
26 0 0
26.4 0 0
26.8 0 0
27.2 0 0
27.6 0 0
28 0 0
28.4 0 0
28.8 0 0
29.2 0 0
29.6 0 0
30 0 0
30.4 0 0
30.8 0 0
31.2 0 0
31.6 0 0
32 0 0
32.4 0 0
32.8 0 0
33.2 0 0
33.6 0 0
34 0 0
34.4 0 0
34.8 0 0
35.2 0 0
35.6 0 0
36 0 0
36.4 0 0
36.8 0 0
37.2 0 0
37.6 0 0
38 0 0
38.4 0 0
38.8 0 0
39.2 0 0
39.6 0 0
40 0 0
40.4 0 0
0 0.1 0
0.4 0.1 0
0.8 0.1 0
1.2 0.1 0
1.6 0.1 0
2 0.1 0
2.4 0.1 0
2.8 0.1 0
3.2 0.1 0
3.6 0.1 0
4 0.1 0
4.4 0.1 0
4.8 0.1 0
5.2 0.1 0
5.6 0.1 0
6 0.1 0
6.4 0.1 0
6.8 0.1 0
7.2 0.1 0
7.6 0.1 0
8 0.1 0
8.4 0.1 0
8.8 0.1 0
9.2 0.1 0
9.6 0.1 0
10 0.1 0
10.4 0.1 0
10.8 0.1 0
11.2 0.1 0
11.6 0.1 0
12 0.1 0
12.4 0.1 0
12.8 0.1 0
13.2 0.1 0
13.6 0.1 0
14 0.1 0
14.4 0.1 0
14.8 0.1 0
15.2 0.1 0
15.6 0.1 0
16 0.1 0
16.4 0.1 0
16.8 0.1 0
17.2 0.1 0
17.6 0.1 0
18 0.1 0
18.4 0.1 0
18.8 0.1 0
19.2 0.1 0
19.6 0.1 0
20 0.1 0
20.4 0.1 0
20.8 0.1 0
21.2 0.1 0
21.6 0.1 0
22 0.1 0
22.4 0.1 0
22.8 0.1 0
23.2 0.1 0
23.6 0.1 0
24 0.1 0
24.4 0.1 0
24.8 0.1 0
25.2 0.1 0
25.6 0.1 0
26 0.1 0
26.4 0.1 0
26.8 0.1 0
27.2 0.1 0
27.6 0.1 0
28 0.1 0
28.4 0.1 0
28.8 0.1 0
29.2 0.1 0
29.6 0.1 0
30 0.1 0
30.4 0.1 0
30.8 0.1 0
31.2 0.1 0
31.6 0.1 0
32 0.1 0
32.4 0.1 0
32.8 0.1 0
33.2 0.1 0
33.6 0.1 0
34 0.1 0
34.4 0.1 0
34.8 0.1 0
35.2 0.1 0
35.6 0.1 0
36 0.1 0
36.4 0.1 0
36.8 0.1 0
37.2 0.1 0
37.6 0.1 0
38 0.1 0
38.4 0.1 0
38.8 0.1 0
39.2 0.1 0
39.6 0.1 0
40 0.1 0
40.4 0.1 0
0 0.2 0
0.4 0.2 0
0.8 0.2 0
1.2 0.2 0
1.6 0.2 0
2 0.2 0
2.4 0.2 0
2.8 0.2 0
3.2 0.2 0
3.6 0.2 0
4 0.2 0
4.4 0.2 0
4.8 0.2 0
5.2 0.2 0
5.6 0.2 0
6 0.2 0
6.4 0.2 0
6.8 0.2 0
7.2 0.2 0
7.6 0.2 0
8 0.2 0
8.4 0.2 0
8.8 0.2 0
9.2 0.2 0
9.6 0.2 0
10 0.2 0
10.4 0.2 0
10.8 0.2 0
11.2 0.2 0
11.6 0.2 0
12 0.2 0
12.4 0.2 0
12.8 0.2 0
13.2 0.2 0
13.6 0.2 0
14 0.2 0
14.4 0.2 0
14.8 0.2 0
15.2 0.2 0
15.6 0.2 0
16 0.2 0
16.4 0.2 0
16.8 0.2 0
17.2 0.2 0
17.6 0.2 0
18 0.2 0
18.4 0.2 0
18.8 0.2 0
19.2 0.2 0
19.6 0.2 0
20 0.2 0
20.4 0.2 0
20.8 0.2 0
21.2 0.2 0
21.6 0.2 0
22 0.2 0
22.4 0.2 0
22.8 0.2 0
23.2 0.2 0
23.6 0.2 0
24 0.2 0
24.4 0.2 0
24.8 0.2 0
25.2 0.2 0
25.6 0.2 0
26 0.2 0
26.4 0.2 0
26.8 0.2 0
27.2 0.2 0
27.6 0.2 0
28 0.2 0
28.4 0.2 0
28.8 0.2 0
29.2 0.2 0
29.6 0.2 0
30 0.2 0
30.4 0.2 0
30.8 0.2 0
31.2 0.2 0
31.6 0.2 0
32 0.2 0
32.4 0.2 0
32.8 0.2 0
33.2 0.2 0
33.6 0.2 0
34 0.2 0
34.4 0.2 0
34.8 0.2 0
35.2 0.2 0
35.6 0.2 0
36 0.2 0
36.4 0.2 0
36.8 0.2 0
37.2 0.2 0
37.6 0.2 0
38 0.2 0
38.4 0.2 0
38.8 0.2 0
39.2 0.2 0
39.6 0.2 0
40 0.2 0
40.4 0.2 0
0 0.3 0
0.4 0.3 0
0.8 0.3 0
1.2 0.3 0
1.6 0.3 0
2 0.3 0
2.4 0.3 0
2.8 0.3 0
3.2 0.3 0
3.6 0.3 0
4 0.3 0
4.4 0.3 0
4.8 0.3 0
5.2 0.3 0
5.6 0.3 0
6 0.3 0
6.4 0.3 0
6.8 0.3 0
7.2 0.3 0
7.6 0.3 0
8 0.3 0
8.4 0.3 0
8.8 0.3 0
9.2 0.3 0
9.6 0.3 0
10 0.3 0
10.4 0.3 0
10.8 0.3 0
11.2 0.3 0
11.6 0.3 0
12 0.3 0
12.4 0.3 0
12.8 0.3 0
13.2 0.3 0
13.6 0.3 0
14 0.3 0
14.4 0.3 0
14.8 0.3 0
15.2 0.3 0
15.6 0.3 0
16 0.3 0
16.4 0.3 0
16.8 0.3 0
17.2 0.3 0
17.6 0.3 0
18 0.3 0
18.4 0.3 0
18.8 0.3 0
19.2 0.3 0
19.6 0.3 0
20 0.3 0
20.4 0.3 0
20.8 0.3 0
21.2 0.3 0
21.6 0.3 0
22 0.3 0
22.4 0.3 0
22.8 0.3 0
23.2 0.3 0
23.6 0.3 0
24 0.3 0
24.4 0.3 0
24.8 0.3 0
25.2 0.3 0
25.6 0.3 0
26 0.3 0
26.4 0.3 0
26.8 0.3 0
27.2 0.3 0
27.6 0.3 0
28 0.3 0
28.4 0.3 0
28.8 0.3 0
29.2 0.3 0
29.6 0.3 0
30 0.3 0
30.4 0.3 0
30.8 0.3 0
31.2 0.3 0
31.6 0.3 0
32 0.3 0
32.4 0.3 0
32.8 0.3 0
33.2 0.3 0
33.6 0.3 0
34 0.3 0
34.4 0.3 0
34.8 0.3 0
35.2 0.3 0
35.6 0.3 0
36 0.3 0
36.4 0.3 0
36.8 0.3 0
37.2 0.3 0
37.6 0.3 0
38 0.3 0
38.4 0.3 0
38.8 0.3 0
39.2 0.3 0
39.6 0.3 0
40 0.3 0
40.4 0.3 0
0 0.4 0
0.4 0.4 0
0.8 0.4 0
1.2 0.4 0
1.6 0.4 0
2 0.4 0
2.4 0.4 0
2.8 0.4 0
3.2 0.4 0
3.6 0.4 0
4 0.4 0
4.4 0.4 0
4.8 0.4 0
5.2 0.4 0
5.6 0.4 0
6 0.4 0
6.4 0.4 0
6.8 0.4 0
7.2 0.4 0
7.6 0.4 0
8 0.4 0
8.4 0.4 0
8.8 0.4 0
9.2 0.4 0
9.6 0.4 0
10 0.4 0
10.4 0.4 0
10.8 0.4 0
11.2 0.4 0
11.6 0.4 0
12 0.4 0
12.4 0.4 0
12.8 0.4 0
13.2 0.4 0
13.6 0.4 0
14 0.4 0
14.4 0.4 0
14.8 0.4 0
15.2 0.4 0
15.6 0.4 0
16 0.4 0
16.4 0.4 0
16.8 0.4 0
17.2 0.4 0
17.6 0.4 0
18 0.4 0
18.4 0.4 0
18.8 0.4 0
19.2 0.4 0
19.6 0.4 0
20 0.4 0
20.4 0.4 0
20.8 0.4 0
21.2 0.4 0
21.6 0.4 0
22 0.4 0
22.4 0.4 0
22.8 0.4 0
23.2 0.4 0
23.6 0.4 0
24 0.4 0
24.4 0.4 0
24.8 0.4 0
25.2 0.4 0
25.6 0.4 0
26 0.4 0
26.4 0.4 0
26.8 0.4 0
27.2 0.4 0
27.6 0.4 0
28 0.4 0
28.4 0.4 0
28.8 0.4 0
29.2 0.4 0
29.6 0.4 0
30 0.4 0
30.4 0.4 0
30.8 0.4 0
31.2 0.4 0
31.6 0.4 0
32 0.4 0
32.4 0.4 0
32.8 0.4 0
33.2 0.4 0
33.6 0.4 0
34 0.4 0
34.4 0.4 0
34.8 0.4 0
35.2 0.4 0
35.6 0.4 0
36 0.4 0
36.4 0.4 0
36.8 0.4 0
37.2 0.4 0
37.6 0.4 0
38 0.4 0
38.4 0.4 0
38.8 0.4 0
39.2 0.4 0
39.6 0.4 0
40 0.4 0
40.4 0.4 0
0 0.5 0
0.4 0.5 0
0.8 0.5 0
1.2 0.5 0
1.6 0.5 0
2 0.5 0
2.4 0.5 0
2.8 0.5 0
3.2 0.5 0
3.6 0.5 0
4 0.5 0
4.4 0.5 0
4.8 0.5 0
5.2 0.5 0
5.6 0.5 0
6 0.5 0
6.4 0.5 0
6.8 0.5 0
7.2 0.5 0
7.6 0.5 0
8 0.5 0
8.4 0.5 0
8.8 0.5 0
9.2 0.5 0
9.6 0.5 0
10 0.5 0
10.4 0.5 0
10.8 0.5 0
11.2 0.5 0
11.6 0.5 0
12 0.5 0
12.4 0.5 0
12.8 0.5 0
13.2 0.5 0
13.6 0.5 0
14 0.5 0
14.4 0.5 0
14.8 0.5 0
15.2 0.5 0
15.6 0.5 0
16 0.5 0
16.4 0.5 0
16.8 0.5 0
17.2 0.5 0
17.6 0.5 0
18 0.5 0
18.4 0.5 0
18.8 0.5 0
19.2 0.5 0
19.6 0.5 0
20 0.5 0
20.4 0.5 0
20.8 0.5 0
21.2 0.5 0
21.6 0.5 0
22 0.5 0
22.4 0.5 0
22.8 0.5 0
23.2 0.5 0
23.6 0.5 0
24 0.5 0
24.4 0.5 0
24.8 0.5 0
25.2 0.5 0
25.6 0.5 0
26 0.5 0
26.4 0.5 0
26.8 0.5 0
27.2 0.5 0
27.6 0.5 0
28 0.5 0
28.4 0.5 0
28.8 0.5 0
29.2 0.5 0
29.6 0.5 0
30 0.5 0
30.4 0.5 0
30.8 0.5 0
31.2 0.5 0
31.6 0.5 0
32 0.5 0
32.4 0.5 0
32.8 0.5 0
33.2 0.5 0
33.6 0.5 0
34 0.5 0
34.4 0.5 0
34.8 0.5 0
35.2 0.5 0
35.6 0.5 0
36 0.5 0
36.4 0.5 0
36.8 0.5 0
37.2 0.5 0
37.6 0.5 0
38 0.5 0
38.4 0.5 0
38.8 0.5 0
39.2 0.5 0
39.6 0.5 0
40 0.5 0
40.4 0.5 0
0 0.6 0
0.4 0.6 0
0.8 0.6 0
1.2 0.6 0
1.6 0.6 0
2 0.6 0
2.4 0.6 0
2.8 0.6 0
3.2 0.6 0
3.6 0.6 0
4 0.6 0
4.4 0.6 0
4.8 0.6 0
5.2 0.6 0
5.6 0.6 0
6 0.6 0
6.4 0.6 0
6.8 0.6 0
7.2 0.6 0
7.6 0.6 0
8 0.6 0
8.4 0.6 0
8.8 0.6 0
9.2 0.6 0
9.6 0.6 0
10 0.6 0
10.4 0.6 0
10.8 0.6 0
11.2 0.6 0
11.6 0.6 0
12 0.6 0
12.4 0.6 0
12.8 0.6 0
13.2 0.6 0
13.6 0.6 0
14 0.6 0
14.4 0.6 0
14.8 0.6 0
15.2 0.6 0
15.6 0.6 0
16 0.6 0
16.4 0.6 0
16.8 0.6 0
17.2 0.6 0
17.6 0.6 0
18 0.6 0
18.4 0.6 0
18.8 0.6 0
19.2 0.6 0
19.6 0.6 0
20 0.6 0
20.4 0.6 0
20.8 0.6 0
21.2 0.6 0
21.6 0.6 0
22 0.6 0
22.4 0.6 0
22.8 0.6 0
23.2 0.6 0
23.6 0.6 0
24 0.6 0
24.4 0.6 0
24.8 0.6 0
25.2 0.6 0
25.6 0.6 0
26 0.6 0
26.4 0.6 0
26.8 0.6 0
27.2 0.6 0
27.6 0.6 0
28 0.6 0
28.4 0.6 0
28.8 0.6 0
29.2 0.6 0
29.6 0.6 0
30 0.6 0
30.4 0.6 0
30.8 0.6 0
31.2 0.6 0
31.6 0.6 0
32 0.6 0
32.4 0.6 0
32.8 0.6 0
33.2 0.6 0
33.6 0.6 0
34 0.6 0
34.4 0.6 0
34.8 0.6 0
35.2 0.6 0
35.6 0.6 0
36 0.6 0
36.4 0.6 0
36.8 0.6 0
37.2 0.6 0
37.6 0.6 0
38 0.6 0
38.4 0.6 0
38.8 0.6 0
39.2 0.6 0
39.6 0.6 0
40 0.6 0
40.4 0.6 0
0 0.7 0
0.4 0.7 0
0.8 0.7 0
1.2 0.7 0
1.6 0.7 0
2 0.7 0
2.4 0.7 0
2.8 0.7 0
3.2 0.7 0
3.6 0.7 0
4 0.7 0
4.4 0.7 0
4.8 0.7 0
5.2 0.7 0
5.6 0.7 0
6 0.7 0
6.4 0.7 0
6.8 0.7 0
7.2 0.7 0
7.6 0.7 0
8 0.7 0
8.4 0.7 0
8.8 0.7 0
9.2 0.7 0
9.6 0.7 0
10 0.7 0
10.4 0.7 0
10.8 0.7 0
11.2 0.7 0
11.6 0.7 0
12 0.7 0
12.4 0.7 0
12.8 0.7 0
13.2 0.7 0
13.6 0.7 0
14 0.7 0
14.4 0.7 0
14.8 0.7 0
15.2 0.7 0
15.6 0.7 0
16 0.7 0
16.4 0.7 0
16.8 0.7 0
17.2 0.7 0
17.6 0.7 0
18 0.7 0
18.4 0.7 0
18.8 0.7 0
19.2 0.7 0
19.6 0.7 0
20 0.7 0
20.4 0.7 0
20.8 0.7 0
21.2 0.7 0
21.6 0.7 0
22 0.7 0
22.4 0.7 0
22.8 0.7 0
23.2 0.7 0
23.6 0.7 0
24 0.7 0
24.4 0.7 0
24.8 0.7 0
25.2 0.7 0
25.6 0.7 0
26 0.7 0
26.4 0.7 0
26.8 0.7 0
27.2 0.7 0
27.6 0.7 0
28 0.7 0
28.4 0.7 0
28.8 0.7 0
29.2 0.7 0
29.6 0.7 0
30 0.7 0
30.4 0.7 0
30.8 0.7 0
31.2 0.7 0
31.6 0.7 0
32 0.7 0
32.4 0.7 0
32.8 0.7 0
33.2 0.7 0
33.6 0.7 0
34 0.7 0
34.4 0.7 0
34.8 0.7 0
35.2 0.7 0
35.6 0.7 0
36 0.7 0
36.4 0.7 0
36.8 0.7 0
37.2 0.7 0
37.6 0.7 0
38 0.7 0
38.4 0.7 0
38.8 0.7 0
39.2 0.7 0
39.6 0.7 0
40 0.7 0
40.4 0.7 0
0 0.8 0
0.4 0.8 0
0.8 0.8 0
1.2 0.8 0
1.6 0.8 0
2 0.8 0
2.4 0.8 0
2.8 0.8 0
3.2 0.8 0
3.6 0.8 0
4 0.8 0
4.4 0.8 0
4.8 0.8 0
5.2 0.8 0
5.6 0.8 0
6 0.8 0
6.4 0.8 0
6.8 0.8 0
7.2 0.8 0
7.6 0.8 0
8 0.8 0
8.4 0.8 0
8.8 0.8 0
9.2 0.8 0
9.6 0.8 0
10 0.8 0
10.4 0.8 0
10.8 0.8 0
11.2 0.8 0
11.6 0.8 0
12 0.8 0
12.4 0.8 0
12.8 0.8 0
13.2 0.8 0
13.6 0.8 0
14 0.8 0
14.4 0.8 0
14.8 0.8 0
15.2 0.8 0
15.6 0.8 0
16 0.8 0
16.4 0.8 0
16.8 0.8 0
17.2 0.8 0
17.6 0.8 0
18 0.8 0
18.4 0.8 0
18.8 0.8 0
19.2 0.8 0
19.6 0.8 0
20 0.8 0
20.4 0.8 0
20.8 0.8 0
21.2 0.8 0
21.6 0.8 0
22 0.8 0
22.4 0.8 0
22.8 0.8 0
23.2 0.8 0
23.6 0.8 0
24 0.8 0
24.4 0.8 0
24.8 0.8 0
25.2 0.8 0
25.6 0.8 0
26 0.8 0
26.4 0.8 0
26.8 0.8 0
27.2 0.8 0
27.6 0.8 0
28 0.8 0
28.4 0.8 0
28.8 0.8 0
29.2 0.8 0
29.6 0.8 0
30 0.8 0
30.4 0.8 0
30.8 0.8 0
31.2 0.8 0
31.6 0.8 0
32 0.8 0
32.4 0.8 0
32.8 0.8 0
33.2 0.8 0
33.6 0.8 0
34 0.8 0
34.4 0.8 0
34.8 0.8 0
35.2 0.8 0
35.6 0.8 0
36 0.8 0
36.4 0.8 0
36.8 0.8 0
37.2 0.8 0
37.6 0.8 0
38 0.8 0
38.4 0.8 0
38.8 0.8 0
39.2 0.8 0
39.6 0.8 0
40 0.8 0
40.4 0.8 0
0 0.9 0
0.4 0.9 0
0.8 0.9 0
1.2 0.9 0
1.6 0.9 0
2 0.9 0
2.4 0.9 0
2.8 0.9 0
3.2 0.9 0
3.6 0.9 0
4 0.9 0
4.4 0.9 0
4.8 0.9 0
5.2 0.9 0
5.6 0.9 0
6 0.9 0
6.4 0.9 0
6.8 0.9 0
7.2 0.9 0
7.6 0.9 0
8 0.9 0
8.4 0.9 0
8.8 0.9 0
9.2 0.9 0
9.6 0.9 0
10 0.9 0
10.4 0.9 0
10.8 0.9 0
11.2 0.9 0
11.6 0.9 0
12 0.9 0
12.4 0.9 0
12.8 0.9 0
13.2 0.9 0
13.6 0.9 0
14 0.9 0
14.4 0.9 0
14.8 0.9 0
15.2 0.9 0
15.6 0.9 0
16 0.9 0
16.4 0.9 0
16.8 0.9 0
17.2 0.9 0
17.6 0.9 0
18 0.9 0
18.4 0.9 0
18.8 0.9 0
19.2 0.9 0
19.6 0.9 0
20 0.9 0
20.4 0.9 0
20.8 0.9 0
21.2 0.9 0
21.6 0.9 0
22 0.9 0
22.4 0.9 0
22.8 0.9 0
23.2 0.9 0
23.6 0.9 0
24 0.9 0
24.4 0.9 0
24.8 0.9 0
25.2 0.9 0
25.6 0.9 0
26 0.9 0
26.4 0.9 0
26.8 0.9 0
27.2 0.9 0
27.6 0.9 0
28 0.9 0
28.4 0.9 0
28.8 0.9 0
29.2 0.9 0
29.6 0.9 0
30 0.9 0
30.4 0.9 0
30.8 0.9 0
31.2 0.9 0
31.6 0.9 0
32 0.9 0
32.4 0.9 0
32.8 0.9 0
33.2 0.9 0
33.6 0.9 0
34 0.9 0
34.4 0.9 0
34.8 0.9 0
35.2 0.9 0
35.6 0.9 0
36 0.9 0
36.4 0.9 0
36.8 0.9 0
37.2 0.9 0
37.6 0.9 0
38 0.9 0
38.4 0.9 0
38.8 0.9 0
39.2 0.9 0
39.6 0.9 0
40 0.9 0
40.4 0.9 0
0 1 0
0.4 1 0
0.8 1 0
1.2 1 0
1.6 1 0
2 1 0
2.4 1 0
2.8 1 0
3.2 1 0
3.6 1 0
4 1 0
4.4 1 0
4.8 1 0
5.2 1 0
5.6 1 0
6 1 0
6.4 1 0
6.8 1 0
7.2 1 0
7.6 1 0
8 1 0
8.4 1 0
8.8 1 0
9.2 1 0
9.6 1 0
10 1 0
10.4 1 0
10.8 1 0
11.2 1 0
11.6 1 0
12 1 0
12.4 1 0
12.8 1 0
13.2 1 0
13.6 1 0
14 1 0
14.4 1 0
14.8 1 0
15.2 1 0
15.6 1 0
16 1 0
16.4 1 0
16.8 1 0
17.2 1 0
17.6 1 0
18 1 0
18.4 1 0
18.8 1 0
19.2 1 0
19.6 1 0
20 1 0
20.4 1 0
20.8 1 0
21.2 1 0
21.6 1 0
22 1 0
22.4 1 0
22.8 1 0
23.2 1 0
23.6 1 0
24 1 0
24.4 1 0
24.8 1 0
25.2 1 0
25.6 1 0
26 1 0
26.4 1 0
26.8 1 0
27.2 1 0
27.6 1 0
28 1 0
28.4 1 0
28.8 1 0
29.2 1 0
29.6 1 0
30 1 0
30.4 1 0
30.8 1 0
31.2 1 0
31.6 1 0
32 1 0
32.4 1 0
32.8 1 0
33.2 1 0
33.6 1 0
34 1 0
34.4 1 0
34.8 1 0
35.2 1 0
35.6 1 0
36 1 0
36.4 1 0
36.8 1 0
37.2 1 0
37.6 1 0
38 1 0
38.4 1 0
38.8 1 0
39.2 1 0
39.6 1 0
40 1 0
40.4 1 0
0 1.1 0
0.4 1.1 0
0.8 1.1 0
1.2 1.1 0
1.6 1.1 0
2 1.1 0
2.4 1.1 0
2.8 1.1 0
3.2 1.1 0
3.6 1.1 0
4 1.1 0
4.4 1.1 0
4.8 1.1 0
5.2 1.1 0
5.6 1.1 0
6 1.1 0
6.4 1.1 0
6.8 1.1 0
7.2 1.1 0
7.6 1.1 0
8 1.1 0
8.4 1.1 0
8.8 1.1 0
9.2 1.1 0
9.6 1.1 0
10 1.1 0
10.4 1.1 0
10.8 1.1 0
11.2 1.1 0
11.6 1.1 0
12 1.1 0
12.4 1.1 0
12.8 1.1 0
13.2 1.1 0
13.6 1.1 0
14 1.1 0
14.4 1.1 0
14.8 1.1 0
15.2 1.1 0
15.6 1.1 0
16 1.1 0
16.4 1.1 0
16.8 1.1 0
17.2 1.1 0
17.6 1.1 0
18 1.1 0
18.4 1.1 0
18.8 1.1 0
19.2 1.1 0
19.6 1.1 0
20 1.1 0
20.4 1.1 0
20.8 1.1 0
21.2 1.1 0
21.6 1.1 0
22 1.1 0
22.4 1.1 0
22.8 1.1 0
23.2 1.1 0
23.6 1.1 0
24 1.1 0
24.4 1.1 0
24.8 1.1 0
25.2 1.1 0
25.6 1.1 0
26 1.1 0
26.4 1.1 0
26.8 1.1 0
27.2 1.1 0
27.6 1.1 0
28 1.1 0
28.4 1.1 0
28.8 1.1 0
29.2 1.1 0
29.6 1.1 0
30 1.1 0
30.4 1.1 0
30.8 1.1 0
31.2 1.1 0
31.6 1.1 0
32 1.1 0
32.4 1.1 0
32.8 1.1 0
33.2 1.1 0
33.6 1.1 0
34 1.1 0
34.4 1.1 0
34.8 1.1 0
35.2 1.1 0
35.6 1.1 0
36 1.1 0
36.4 1.1 0
36.8 1.1 0
37.2 1.1 0
37.6 1.1 0
38 1.1 0
38.4 1.1 0
38.8 1.1 0
39.2 1.1 0
39.6 1.1 0
40 1.1 0
40.4 1.1 0

POINT_DATA 1224

SCALARS phi double
LOOKUP_TABLE default
0.911619
1.08838
1.18693
1.21817
1.20207
1.16371
1.12152
1.08384
1.05232
1.02601
1.00345
0.983492
0.965361
0.948567
0.932803
0.917866
0.903601
0.889854
0.876451
0.863176
0.849774
0.835963
0.821461
0.806007
0.789385
0.771441
0.752093
0.731329
0.7092
0.685815
0.661323
0.635902
0.609746
0.583053
0.556023
0.528843
0.501683
0.474698
0.448023
0.421772
0.396043
0.370915
0.346453
0.322708
0.299721
0.277522
0.256136
0.235581
0.215873
0.197023
0.179045
0.161948
0.145745
0.130447
0.116066
0.102615
0.0901035
0.078539
0.0679251
0.058259
0.049531
0.0417226
0.0348059
0.0287437
0.0234893
0.0189881
0.0151788
0.0119954
0.00936907
0.00723088
0.00551334
0.00415241
0.0030888
0.00226902
0.00164594
0.00117894
0.000833785
0.000582234
0.00040144
0.000273294
0.000183713
0.000121945
7.99328e-05
5.17427e-05
3.308e-05
2.08883e-05
1.30286e-05
8.02763e-06
4.88659e-06
2.93896e-06
1.74659e-06
1.02574e-06
5.95367e-07
3.41546e-07
1.93724e-07
1.08576e-07
6.03366e-08
3.29558e-08
1.84939e-08
9.68473e-09
5.88756e-09
5.88756e-09
0.911619
1.08838
1.18693
1.21817
1.20207
1.16371
1.12152
1.08384
1.05232
1.02601
1.00345
0.983492
0.965361
0.948567
0.932803
0.917866
0.903601
0.889854
0.876451
0.863176
0.849774
0.835963
0.821461
0.806007
0.789385
0.771441
0.752093
0.731329
0.7092
0.685815
0.661323
0.635902
0.609746
0.583053
0.556023
0.528843
0.501683
0.474698
0.448023
0.421772
0.396043
0.370915
0.346453
0.322708
0.299721
0.277522
0.256136
0.235581
0.215873
0.197023
0.179045
0.161948
0.145745
0.130447
0.116066
0.102615
0.0901035
0.078539
0.0679251
0.058259
0.049531
0.0417226
0.0348059
0.0287437
0.0234893
0.0189881
0.0151788
0.0119954
0.00936907
0.00723088
0.00551334
0.00415241
0.0030888
0.00226902
0.00164594
0.00117894
0.000833785
0.000582234
0.00040144
0.000273294
0.000183713
0.000121945
7.99328e-05
5.17427e-05
3.308e-05
2.08883e-05
1.30286e-05
8.02763e-06
4.88659e-06
2.93896e-06
1.74659e-06
1.02574e-06
5.95367e-07
3.41546e-07
1.93724e-07
1.08576e-07
6.03366e-08
3.29558e-08
1.84939e-08
9.68473e-09
5.88756e-09
5.88756e-09
1.00188
0.998125
1.02685
1.06105
1.08319
1.0888
1.08087
1.06447
1.04395
1.02217
1.00069
0.980209
0.960954
0.942917
0.925999
0.910077
0.895026
0.880719
0.867021
0.853774
0.840793
0.827865
0.814757
0.801234
0.787074
0.772084
0.756113
0.73906
0.720876
0.701564
0.68117
0.659779
0.637507
0.614484
0.590857
0.566777
0.542392
0.517844
0.493263
0.46877
0.44447
0.420457
0.39681
0.373597
0.350874
0.328688
0.307077
0.286072
0.265699
0.245979
0.22693
0.208568
0.190909
0.173969
0.157764
0.142312
0.127636
0.113756
0.100698
0.0884856
0.077142
0.066686
0.0571305
0.0484802
0.0407294
0.0338606
0.0278446
0.0226399
0.0181947
0.0144484
0.0113341
0.00878093
0.00671745
0.00507354
0.00378276
0.00278394
0.00202225
0.00144984
0.0010259
0.000716466
0.000493853
0.000335991
0.000225635
0.000149575
9.78849e-05
6.32427e-05
4.03441e-05
2.54133e-05
1.58088e-05
9.71248e-06
5.89392e-06
3.53315e-06
2.09246e-06
1.22438e-06
7.0806e-07
4.04507e-07
2.2888e-07
1.27404e-07
7.19804e-08
3.82703e-08
2.44197e-08
2.44197e-08
1.01572
0.984281
0.963649
0.958795
0.96217
0.966524
0.967709
0.964361
0.956778
0.945954
0.932986
0.918808
0.904114
0.889375
0.874887
0.860825
0.847276
0.834271
0.821803
0.809828
0.798274
0.787037
0.77599
0.764985
0.753864
0.742466
0.730636
0.71824
0.705165
0.691329
0.676681
0.661199
0.644892
0.627793
0.609957
0.591454
0.572366
0.552783
0.532796
0.512496
0.491972
0.471308
0.45058
0.429859
0.409209
0.388685
0.368338
0.34821
0.32834
0.30876
0.289499
0.270581
0.252031
0.233868
0.216117
0.198802
0.181953
0.165605
0.149802
0.134596
0.120046
0.106215
0.09317
0.0809746
0.0696866
0.0593519
0.0500015
0.0416477
0.0342828
0.0278792
0.0223906
0.0177547
0.0138973
0.0107358
0.00818403
0.00615578
0.00456826
0.00334466
0.0024159
0.00172161
0.00121039
0.000839606
0.000574651
0.000388098
0.000258656
0.000170131
0.00011045
7.07808e-05
4.47789e-05
2.79698e-05
1.72509e-05
1.05072e-05
6.32081e-06
3.75583e-06
2.20488e-06
1.27859e-06
7.33459e-07
4.14719e-07
2.35145e-07
1.27828e-07
7.80522e-08
7.80522e-08
1.02404
0.975965
0.919364
0.876597
0.848753
0.831753
0.821182
0.813715
0.807274
0.800757
0.793701
0.786012
0.777776
0.769148
0.760296
0.751368
0.742486
0.73374
0.72519
0.716874
0.708803
0.700965
0.693326
0.685834
0.678415
0.670985
0.663448
0.655705
0.647657
0.639212
0.630289
0.620818
0.610748
0.600041
0.588677
0.576651
0.563971
0.550657
0.536738
0.522252
0.507239
0.491744
0.475815
0.459499
0.442841
0.425887
0.408682
0.391266
0.37368
0.35596
0.338143
0.320259
0.302341
0.284416
0.266515
0.24867
0.230918
0.213303
0.195882
0.178725
0.161915
0.145549
0.129737
0.114595
0.100239
0.0867797
0.0743127
0.0629146
0.0526361
0.0434998
0.0354984
0.0285971
0.0227363
0.0178369
0.0138055
0.0105407
0.00793846
0.00589704
0.00432069
0.00312246
0.00222574
0.00156497
0.00108547
0.000742746
0.000501429
0.000334014
0.000219558
0.000142433
9.12001e-05
5.76439e-05
3.59696e-05
2.21612e-05
1.34828e-05
8.10119e-06
4.80805e-06
2.8186e-06
1.63342e-06
9.33838e-07
5.32489e-07
2.92821e-07
1.76405e-07
1.76405e-07
1.11553
0.884471
0.754942
0.682423
0.641439
0.61841
0.605773
0.599099
0.595721
0.594024
0.593049
0.592248
0.591331
0.590167
0.588716
0.586989
0.585024
0.582868
0.580569
0.57817
0.575707
0.573206
0.57068
0.568131
0.565551
0.562915
0.56019
0.557332
0.554288
0.551
0.547407
0.543449
0.539065
0.534201
0.528807
0.522838
0.516258
0.509038
0.501157
0.492602
0.483365
0.473446
0.462852
0.451594
0.439686
0.427151
0.414011
0.400296
0.386036
0.371265
0.356017
0.34033
0.324239
0.307782
0.290997
0.273928
0.256621
0.239131
0.221529
0.203897
0.186338
0.168972
0.151935
0.135377
0.119452
0.104313
0.0901006
0.0769378
0.0649185
0.0541046
0.0445227
0.0361643
0.0289881
0.0229252
0.0178852
0.0137628
0.0104453
0.00781838
0.00577142
0.00420167
0.00301679
0.00213636
0.00149223
0.00102816
0.000698851
0.000468653
0.000310102
0.000202484
0.000130485
8.29968e-05
5.21134e-05
3.23055e-05
1.97741e-05
1.19526e-05
7.13581e-06
4.20772e-06
2.45227e-06
1.41011e-06
8.07945e-07
4.46395e-07
2.70541e-07
2.70541e-07
-0.101677
0.101677
0.204149
0.258515
0.29004
0.310502
0.325452
0.337536
0.348013
0.357476
0.366192
0.374278
0.381784
0.388735
0.395152
0.401057
0.406477
0.411445
0.415996
0.420165
0.423988
0.427499
0.430727
0.433695
0.436422
0.438917
0.441182
0.443211
0.444986
0.446484
0.447672
0.448509
0.448951
0.448949
0.448449
0.4474
0.445747
0.44344
0.440432
0.43668
0.432145
0.426798
0.420614
0.413577
0.40568
0.396923
0.387317
0.376877
0.36563
0.353607
0.340846
0.32739
0.313284
0.298578
0.283325
0.267584
0.251418
0.2349
0.218118
0.201172
0.184181
0.16728
0.150621
0.134366
0.118682
0.103732
0.0896677
0.0766183
0.0646852
0.0539361
0.0444024
0.0360793
0.0289287
0.0228842
0.0178572
0.0137439
0.0104327
0.00781006
0.00576599
0.00419817
0.00301457
0.00213496
0.00149136
0.00102762
0.000698523
0.000468456
0.000309984
0.000202415
0.000130444
8.29738e-05
5.21003e-05
3.22981e-05
1.977e-05
1.19504e-05
7.13458e-06
4.20705e-06
2.45192e-06
1.40992e-06
8.07848e-07
4.46345e-07
2.70514e-07
2.70514e-07
-0.00930645
0.00930645
0.0399923
0.0692732
0.0943627
0.115578
0.133846
0.150008
0.164679
0.178277
0.191068
0.203216
0.214819
0.225933
0.236591
0.246813
0.25661
0.265995
0.274979
0.283574
0.291792
0.299649
0.307157
0.314328
0.321174
0.3277
0.333907
0.339792
0.345341
0.350535
0.355347
0.35974
0.363671
0.36709
0.369942
0.372168
0.373708
0.374499
0.374485
0.37361
0.371828
0.369096
0.365386
0.360674
0.354953
0.348224
0.340501
0.331809
0.322184
0.31167
0.300322
0.288198
0.275365
0.261894
0.247859
0.23334
0.218426
0.20321
0.187798
0.172308
0.156867
0.141616
0.126703
0.112277
0.0984853
0.0854664
0.0733396
0.0622011
0.0521187
0.0431285
0.035235
0.0284123
0.0226081
0.0177489
0.0137458
0.0105007
0.00791194
0.00587966
0.00430944
0.00311525
0.00222118
0.00156212
0.0010837
0.000741666
0.000500776
0.000333624
0.000219328
0.000142298
9.11221e-05
5.75993e-05
3.59444e-05
2.21471e-05
1.34751e-05
8.09693e-06
4.80574e-06
2.81737e-06
1.63276e-06
9.33495e-07
5.32311e-07
2.9273e-07
1.76358e-07
1.76358e-07
-0.000483305
0.000483305
0.0062834
0.014825
0.024693
0.0352056
0.0460684
0.0571535
0.0683964
0.0797547
0.0911921
0.102673
0.114161
0.125618
0.137007
0.14829
0.159435
0.17041
0.181187
0.191743
0.202059
0.212116
0.221901
0.231398
0.240593
0.249466
0.257999
0.266163
0.273927
0.281251
0.28809
0.294391
0.300095
0.30514
0.30946
0.312987
0.315655
0.317403
0.318174
0.31792
0.316603
0.314197
0.31069
0.306081
0.300387
0.293635
0.285869
0.277142
0.267521
0.25708
0.245902
0.234076
0.221694
0.208854
0.195655
0.1822
0.168595
0.15495
0.141377
0.127995
0.114921
0.102274
0.0901683
0.078711
0.0679966
0.0581032
0.0490883
0.040987
0.0338099
0.0275443
0.022156
0.0175923
0.013786
0.0106604
0.00813357
0.00612237
0.0045464
0.00333051
0.00240685
0.00171588
0.00120681
0.000837392
0.000573298
0.000387281
0.000258167
0.000169843
0.000110282
7.06833e-05
4.47232e-05
2.79383e-05
1.72333e-05
1.04975e-05
6.31548e-06
3.75295e-06
2.20334e-06
1.27777e-06
7.3303e-07
4.14496e-07
2.3503e-07
1.2777e-07
7.80221e-08
7.80221e-08
4.08322e-05
-4.08322e-05
0.000817245
0.00283838
0.00606915
0.0105077
0.0161103
0.0227913
0.0304364
0.0389186
0.0481101
0.0578891
0.0681419
0.0787647
0.0896627
0.100751
0.111952
0.123199
0.134432
0.145597
0.156646
0.167536
0.178226
0.188673
0.198836
0.208667
0.218117
0.22713
0.235644
0.243592
0.250903
0.257502
0.263311
0.268254
0.272258
0.275255
0.277186
0.278001
0.277662
0.276147
0.27345
0.269578
0.264558
0.258431
0.251256
0.243102
0.234053
0.224205
0.213659
0.202525
0.190916
0.178948
0.166737
0.1544
0.14205
0.1298
0.117757
0.106024
0.0947009
0.0838764
0.0736323
0.0640389
0.0551534
0.0470181
0.0396589
0.0330849
0.0272882
0.022245
0.0179175
0.0142559
0.0112017
0.00869098
0.00665698
0.00503335
0.00375634
0.00276676
0.0020112
0.00144281
0.00102149
0.000713721
0.000492166
0.000334965
0.000225018
0.000149208
9.76694e-05
6.31174e-05
4.0272e-05
2.53723e-05
1.57857e-05
9.69964e-06
5.88684e-06
3.52929e-06
2.09038e-06
1.22327e-06
7.07475e-07
4.04201e-07
2.28722e-07
1.27324e-07
7.19387e-08
3.82497e-08
2.44086e-08
2.44086e-08
2.2059e-05
-2.2059e-05
0.000114971
0.000803975
0.00239726
0.00512891
0.00909723
0.0142977
0.0206594
0.0280718
0.0364036
0.0455167
0.0552757
0.0655533
0.0762328
0.0872091
0.0983887
0.109689
0.121035
0.132362
0.143607
0.154714
0.165625
0.176279
0.186616
0.196568
0.206062
0.215021
0.223361
0.230997
0.23784
0.243803
0.248801
0.252754
0.255596
0.257268
0.257726
0.256943
0.254909
0.25163
0.247136
0.24147
0.234695
0.22689
0.218149
0.208577
0.198288
0.187405
0.176055
0.164367
0.152473
0.140501
0.128576
0.116818
0.10534
0.0942463
0.0836323
0.0735806
0.0641608
0.0554282
0.0474225
0.0401674
0.0336702
0.0279226
0.0229017
0.018572
0.0148872
0.0117931
0.00923026
0.00713665
0.00545006
0.00411037
0.00306117
0.00225107
0.0016344
0.0011716
0.00082917
0.000579364
0.000399675
0.00027222
0.000183066
0.00012156
7.97062e-05
5.16107e-05
3.30039e-05
2.0845e-05
1.30042e-05
8.014e-06
4.87906e-06
2.93485e-06
1.74437e-06
1.02455e-06
5.94738e-07
3.41216e-07
1.93553e-07
1.08488e-07
6.02919e-08
3.29334e-08
1.84824e-08
9.67911e-09
5.88468e-09
5.88468e-09
2.2059e-05
-2.2059e-05
0.000114971
0.000803975
0.00239726
0.00512891
0.00909723
0.0142977
0.0206594
0.0280718
0.0364036
0.0455167
0.0552757
0.0655533
0.0762328
0.0872091
0.0983887
0.109689
0.121035
0.132362
0.143607
0.154714
0.165625
0.176279
0.186616
0.196568
0.206062
0.215021
0.223361
0.230997
0.23784
0.243803
0.248801
0.252754
0.255596
0.257268
0.257726
0.256943
0.254909
0.25163
0.247136
0.24147
0.234695
0.22689
0.218149
0.208577
0.198288
0.187405
0.176055
0.164367
0.152473
0.140501
0.128576
0.116818
0.10534
0.0942463
0.0836323
0.0735806
0.0641608
0.0554282
0.0474225
0.0401674
0.0336702
0.0279226
0.0229017
0.018572
0.0148872
0.0117931
0.00923026
0.00713665
0.00545006
0.00411037
0.00306117
0.00225107
0.0016344
0.0011716
0.00082917
0.000579364
0.000399675
0.00027222
0.000183066
0.00012156
7.97062e-05
5.16107e-05
3.30039e-05
2.0845e-05
1.30042e-05
8.014e-06
4.87906e-06
2.93485e-06
1.74437e-06
1.02455e-06
5.94738e-07
3.41216e-07
1.93553e-07
1.08488e-07
6.02919e-08
3.29334e-08
1.84824e-08
9.67911e-09
5.88468e-09
5.88468e-09
