# vtk DataFile Version 2.0
FlowField
ASCII
DATASET STRUCTURED_GRID
DIMENSIONS 101 11 1 
POINTS 1111 double
0 0 0
0.3 0 0
0.6 0 0
0.9 0 0
1.2 0 0
1.5 0 0
1.8 0 0
2.1 0 0
2.4 0 0
2.7 0 0
3 0 0
3.3 0 0
3.6 0 0
3.9 0 0
4.2 0 0
4.5 0 0
4.8 0 0
5.1 0 0
5.4 0 0
5.7 0 0
6 0 0
6.3 0 0
6.6 0 0
6.9 0 0
7.2 0 0
7.5 0 0
7.8 0 0
8.1 0 0
8.4 0 0
8.7 0 0
9 0 0
9.3 0 0
9.6 0 0
9.9 0 0
10.2 0 0
10.5 0 0
10.8 0 0
11.1 0 0
11.4 0 0
11.7 0 0
12 0 0
12.3 0 0
12.6 0 0
12.9 0 0
13.2 0 0
13.5 0 0
13.8 0 0
14.1 0 0
14.4 0 0
14.7 0 0
15 0 0
15.3 0 0
15.6 0 0
15.9 0 0
16.2 0 0
16.5 0 0
16.8 0 0
17.1 0 0
17.4 0 0
17.7 0 0
18 0 0
18.3 0 0
18.6 0 0
18.9 0 0
19.2 0 0
19.5 0 0
19.8 0 0
20.1 0 0
20.4 0 0
20.7 0 0
21 0 0
21.3 0 0
21.6 0 0
21.9 0 0
22.2 0 0
22.5 0 0
22.8 0 0
23.1 0 0
23.4 0 0
23.7 0 0
24 0 0
24.3 0 0
24.6 0 0
24.9 0 0
25.2 0 0
25.5 0 0
25.8 0 0
26.1 0 0
26.4 0 0
26.7 0 0
27 0 0
27.3 0 0
27.6 0 0
27.9 0 0
28.2 0 0
28.5 0 0
28.8 0 0
29.1 0 0
29.4 0 0
29.7 0 0
30 0 0
0 0.1 0
0.3 0.1 0
0.6 0.1 0
0.9 0.1 0
1.2 0.1 0
1.5 0.1 0
1.8 0.1 0
2.1 0.1 0
2.4 0.1 0
2.7 0.1 0
3 0.1 0
3.3 0.1 0
3.6 0.1 0
3.9 0.1 0
4.2 0.1 0
4.5 0.1 0
4.8 0.1 0
5.1 0.1 0
5.4 0.1 0
5.7 0.1 0
6 0.1 0
6.3 0.1 0
6.6 0.1 0
6.9 0.1 0
7.2 0.1 0
7.5 0.1 0
7.8 0.1 0
8.1 0.1 0
8.4 0.1 0
8.7 0.1 0
9 0.1 0
9.3 0.1 0
9.6 0.1 0
9.9 0.1 0
10.2 0.1 0
10.5 0.1 0
10.8 0.1 0
11.1 0.1 0
11.4 0.1 0
11.7 0.1 0
12 0.1 0
12.3 0.1 0
12.6 0.1 0
12.9 0.1 0
13.2 0.1 0
13.5 0.1 0
13.8 0.1 0
14.1 0.1 0
14.4 0.1 0
14.7 0.1 0
15 0.1 0
15.3 0.1 0
15.6 0.1 0
15.9 0.1 0
16.2 0.1 0
16.5 0.1 0
16.8 0.1 0
17.1 0.1 0
17.4 0.1 0
17.7 0.1 0
18 0.1 0
18.3 0.1 0
18.6 0.1 0
18.9 0.1 0
19.2 0.1 0
19.5 0.1 0
19.8 0.1 0
20.1 0.1 0
20.4 0.1 0
20.7 0.1 0
21 0.1 0
21.3 0.1 0
21.6 0.1 0
21.9 0.1 0
22.2 0.1 0
22.5 0.1 0
22.8 0.1 0
23.1 0.1 0
23.4 0.1 0
23.7 0.1 0
24 0.1 0
24.3 0.1 0
24.6 0.1 0
24.9 0.1 0
25.2 0.1 0
25.5 0.1 0
25.8 0.1 0
26.1 0.1 0
26.4 0.1 0
26.7 0.1 0
27 0.1 0
27.3 0.1 0
27.6 0.1 0
27.9 0.1 0
28.2 0.1 0
28.5 0.1 0
28.8 0.1 0
29.1 0.1 0
29.4 0.1 0
29.7 0.1 0
30 0.1 0
0 0.2 0
0.3 0.2 0
0.6 0.2 0
0.9 0.2 0
1.2 0.2 0
1.5 0.2 0
1.8 0.2 0
2.1 0.2 0
2.4 0.2 0
2.7 0.2 0
3 0.2 0
3.3 0.2 0
3.6 0.2 0
3.9 0.2 0
4.2 0.2 0
4.5 0.2 0
4.8 0.2 0
5.1 0.2 0
5.4 0.2 0
5.7 0.2 0
6 0.2 0
6.3 0.2 0
6.6 0.2 0
6.9 0.2 0
7.2 0.2 0
7.5 0.2 0
7.8 0.2 0
8.1 0.2 0
8.4 0.2 0
8.7 0.2 0
9 0.2 0
9.3 0.2 0
9.6 0.2 0
9.9 0.2 0
10.2 0.2 0
10.5 0.2 0
10.8 0.2 0
11.1 0.2 0
11.4 0.2 0
11.7 0.2 0
12 0.2 0
12.3 0.2 0
12.6 0.2 0
12.9 0.2 0
13.2 0.2 0
13.5 0.2 0
13.8 0.2 0
14.1 0.2 0
14.4 0.2 0
14.7 0.2 0
15 0.2 0
15.3 0.2 0
15.6 0.2 0
15.9 0.2 0
16.2 0.2 0
16.5 0.2 0
16.8 0.2 0
17.1 0.2 0
17.4 0.2 0
17.7 0.2 0
18 0.2 0
18.3 0.2 0
18.6 0.2 0
18.9 0.2 0
19.2 0.2 0
19.5 0.2 0
19.8 0.2 0
20.1 0.2 0
20.4 0.2 0
20.7 0.2 0
21 0.2 0
21.3 0.2 0
21.6 0.2 0
21.9 0.2 0
22.2 0.2 0
22.5 0.2 0
22.8 0.2 0
23.1 0.2 0
23.4 0.2 0
23.7 0.2 0
24 0.2 0
24.3 0.2 0
24.6 0.2 0
24.9 0.2 0
25.2 0.2 0
25.5 0.2 0
25.8 0.2 0
26.1 0.2 0
26.4 0.2 0
26.7 0.2 0
27 0.2 0
27.3 0.2 0
27.6 0.2 0
27.9 0.2 0
28.2 0.2 0
28.5 0.2 0
28.8 0.2 0
29.1 0.2 0
29.4 0.2 0
29.7 0.2 0
30 0.2 0
0 0.3 0
0.3 0.3 0
0.6 0.3 0
0.9 0.3 0
1.2 0.3 0
1.5 0.3 0
1.8 0.3 0
2.1 0.3 0
2.4 0.3 0
2.7 0.3 0
3 0.3 0
3.3 0.3 0
3.6 0.3 0
3.9 0.3 0
4.2 0.3 0
4.5 0.3 0
4.8 0.3 0
5.1 0.3 0
5.4 0.3 0
5.7 0.3 0
6 0.3 0
6.3 0.3 0
6.6 0.3 0
6.9 0.3 0
7.2 0.3 0
7.5 0.3 0
7.8 0.3 0
8.1 0.3 0
8.4 0.3 0
8.7 0.3 0
9 0.3 0
9.3 0.3 0
9.6 0.3 0
9.9 0.3 0
10.2 0.3 0
10.5 0.3 0
10.8 0.3 0
11.1 0.3 0
11.4 0.3 0
11.7 0.3 0
12 0.3 0
12.3 0.3 0
12.6 0.3 0
12.9 0.3 0
13.2 0.3 0
13.5 0.3 0
13.8 0.3 0
14.1 0.3 0
14.4 0.3 0
14.7 0.3 0
15 0.3 0
15.3 0.3 0
15.6 0.3 0
15.9 0.3 0
16.2 0.3 0
16.5 0.3 0
16.8 0.3 0
17.1 0.3 0
17.4 0.3 0
17.7 0.3 0
18 0.3 0
18.3 0.3 0
18.6 0.3 0
18.9 0.3 0
19.2 0.3 0
19.5 0.3 0
19.8 0.3 0
20.1 0.3 0
20.4 0.3 0
20.7 0.3 0
21 0.3 0
21.3 0.3 0
21.6 0.3 0
21.9 0.3 0
22.2 0.3 0
22.5 0.3 0
22.8 0.3 0
23.1 0.3 0
23.4 0.3 0
23.7 0.3 0
24 0.3 0
24.3 0.3 0
24.6 0.3 0
24.9 0.3 0
25.2 0.3 0
25.5 0.3 0
25.8 0.3 0
26.1 0.3 0
26.4 0.3 0
26.7 0.3 0
27 0.3 0
27.3 0.3 0
27.6 0.3 0
27.9 0.3 0
28.2 0.3 0
28.5 0.3 0
28.8 0.3 0
29.1 0.3 0
29.4 0.3 0
29.7 0.3 0
30 0.3 0
0 0.4 0
0.3 0.4 0
0.6 0.4 0
0.9 0.4 0
1.2 0.4 0
1.5 0.4 0
1.8 0.4 0
2.1 0.4 0
2.4 0.4 0
2.7 0.4 0
3 0.4 0
3.3 0.4 0
3.6 0.4 0
3.9 0.4 0
4.2 0.4 0
4.5 0.4 0
4.8 0.4 0
5.1 0.4 0
5.4 0.4 0
5.7 0.4 0
6 0.4 0
6.3 0.4 0
6.6 0.4 0
6.9 0.4 0
7.2 0.4 0
7.5 0.4 0
7.8 0.4 0
8.1 0.4 0
8.4 0.4 0
8.7 0.4 0
9 0.4 0
9.3 0.4 0
9.6 0.4 0
9.9 0.4 0
10.2 0.4 0
10.5 0.4 0
10.8 0.4 0
11.1 0.4 0
11.4 0.4 0
11.7 0.4 0
12 0.4 0
12.3 0.4 0
12.6 0.4 0
12.9 0.4 0
13.2 0.4 0
13.5 0.4 0
13.8 0.4 0
14.1 0.4 0
14.4 0.4 0
14.7 0.4 0
15 0.4 0
15.3 0.4 0
15.6 0.4 0
15.9 0.4 0
16.2 0.4 0
16.5 0.4 0
16.8 0.4 0
17.1 0.4 0
17.4 0.4 0
17.7 0.4 0
18 0.4 0
18.3 0.4 0
18.6 0.4 0
18.9 0.4 0
19.2 0.4 0
19.5 0.4 0
19.8 0.4 0
20.1 0.4 0
20.4 0.4 0
20.7 0.4 0
21 0.4 0
21.3 0.4 0
21.6 0.4 0
21.9 0.4 0
22.2 0.4 0
22.5 0.4 0
22.8 0.4 0
23.1 0.4 0
23.4 0.4 0
23.7 0.4 0
24 0.4 0
24.3 0.4 0
24.6 0.4 0
24.9 0.4 0
25.2 0.4 0
25.5 0.4 0
25.8 0.4 0
26.1 0.4 0
26.4 0.4 0
26.7 0.4 0
27 0.4 0
27.3 0.4 0
27.6 0.4 0
27.9 0.4 0
28.2 0.4 0
28.5 0.4 0
28.8 0.4 0
29.1 0.4 0
29.4 0.4 0
29.7 0.4 0
30 0.4 0
0 0.5 0
0.3 0.5 0
0.6 0.5 0
0.9 0.5 0
1.2 0.5 0
1.5 0.5 0
1.8 0.5 0
2.1 0.5 0
2.4 0.5 0
2.7 0.5 0
3 0.5 0
3.3 0.5 0
3.6 0.5 0
3.9 0.5 0
4.2 0.5 0
4.5 0.5 0
4.8 0.5 0
5.1 0.5 0
5.4 0.5 0
5.7 0.5 0
6 0.5 0
6.3 0.5 0
6.6 0.5 0
6.9 0.5 0
7.2 0.5 0
7.5 0.5 0
7.8 0.5 0
8.1 0.5 0
8.4 0.5 0
8.7 0.5 0
9 0.5 0
9.3 0.5 0
9.6 0.5 0
9.9 0.5 0
10.2 0.5 0
10.5 0.5 0
10.8 0.5 0
11.1 0.5 0
11.4 0.5 0
11.7 0.5 0
12 0.5 0
12.3 0.5 0
12.6 0.5 0
12.9 0.5 0
13.2 0.5 0
13.5 0.5 0
13.8 0.5 0
14.1 0.5 0
14.4 0.5 0
14.7 0.5 0
15 0.5 0
15.3 0.5 0
15.6 0.5 0
15.9 0.5 0
16.2 0.5 0
16.5 0.5 0
16.8 0.5 0
17.1 0.5 0
17.4 0.5 0
17.7 0.5 0
18 0.5 0
18.3 0.5 0
18.6 0.5 0
18.9 0.5 0
19.2 0.5 0
19.5 0.5 0
19.8 0.5 0
20.1 0.5 0
20.4 0.5 0
20.7 0.5 0
21 0.5 0
21.3 0.5 0
21.6 0.5 0
21.9 0.5 0
22.2 0.5 0
22.5 0.5 0
22.8 0.5 0
23.1 0.5 0
23.4 0.5 0
23.7 0.5 0
24 0.5 0
24.3 0.5 0
24.6 0.5 0
24.9 0.5 0
25.2 0.5 0
25.5 0.5 0
25.8 0.5 0
26.1 0.5 0
26.4 0.5 0
26.7 0.5 0
27 0.5 0
27.3 0.5 0
27.6 0.5 0
27.9 0.5 0
28.2 0.5 0
28.5 0.5 0
28.8 0.5 0
29.1 0.5 0
29.4 0.5 0
29.7 0.5 0
30 0.5 0
0 0.6 0
0.3 0.6 0
0.6 0.6 0
0.9 0.6 0
1.2 0.6 0
1.5 0.6 0
1.8 0.6 0
2.1 0.6 0
2.4 0.6 0
2.7 0.6 0
3 0.6 0
3.3 0.6 0
3.6 0.6 0
3.9 0.6 0
4.2 0.6 0
4.5 0.6 0
4.8 0.6 0
5.1 0.6 0
5.4 0.6 0
5.7 0.6 0
6 0.6 0
6.3 0.6 0
6.6 0.6 0
6.9 0.6 0
7.2 0.6 0
7.5 0.6 0
7.8 0.6 0
8.1 0.6 0
8.4 0.6 0
8.7 0.6 0
9 0.6 0
9.3 0.6 0
9.6 0.6 0
9.9 0.6 0
10.2 0.6 0
10.5 0.6 0
10.8 0.6 0
11.1 0.6 0
11.4 0.6 0
11.7 0.6 0
12 0.6 0
12.3 0.6 0
12.6 0.6 0
12.9 0.6 0
13.2 0.6 0
13.5 0.6 0
13.8 0.6 0
14.1 0.6 0
14.4 0.6 0
14.7 0.6 0
15 0.6 0
15.3 0.6 0
15.6 0.6 0
15.9 0.6 0
16.2 0.6 0
16.5 0.6 0
16.8 0.6 0
17.1 0.6 0
17.4 0.6 0
17.7 0.6 0
18 0.6 0
18.3 0.6 0
18.6 0.6 0
18.9 0.6 0
19.2 0.6 0
19.5 0.6 0
19.8 0.6 0
20.1 0.6 0
20.4 0.6 0
20.7 0.6 0
21 0.6 0
21.3 0.6 0
21.6 0.6 0
21.9 0.6 0
22.2 0.6 0
22.5 0.6 0
22.8 0.6 0
23.1 0.6 0
23.4 0.6 0
23.7 0.6 0
24 0.6 0
24.3 0.6 0
24.6 0.6 0
24.9 0.6 0
25.2 0.6 0
25.5 0.6 0
25.8 0.6 0
26.1 0.6 0
26.4 0.6 0
26.7 0.6 0
27 0.6 0
27.3 0.6 0
27.6 0.6 0
27.9 0.6 0
28.2 0.6 0
28.5 0.6 0
28.8 0.6 0
29.1 0.6 0
29.4 0.6 0
29.7 0.6 0
30 0.6 0
0 0.7 0
0.3 0.7 0
0.6 0.7 0
0.9 0.7 0
1.2 0.7 0
1.5 0.7 0
1.8 0.7 0
2.1 0.7 0
2.4 0.7 0
2.7 0.7 0
3 0.7 0
3.3 0.7 0
3.6 0.7 0
3.9 0.7 0
4.2 0.7 0
4.5 0.7 0
4.8 0.7 0
5.1 0.7 0
5.4 0.7 0
5.7 0.7 0
6 0.7 0
6.3 0.7 0
6.6 0.7 0
6.9 0.7 0
7.2 0.7 0
7.5 0.7 0
7.8 0.7 0
8.1 0.7 0
8.4 0.7 0
8.7 0.7 0
9 0.7 0
9.3 0.7 0
9.6 0.7 0
9.9 0.7 0
10.2 0.7 0
10.5 0.7 0
10.8 0.7 0
11.1 0.7 0
11.4 0.7 0
11.7 0.7 0
12 0.7 0
12.3 0.7 0
12.6 0.7 0
12.9 0.7 0
13.2 0.7 0
13.5 0.7 0
13.8 0.7 0
14.1 0.7 0
14.4 0.7 0
14.7 0.7 0
15 0.7 0
15.3 0.7 0
15.6 0.7 0
15.9 0.7 0
16.2 0.7 0
16.5 0.7 0
16.8 0.7 0
17.1 0.7 0
17.4 0.7 0
17.7 0.7 0
18 0.7 0
18.3 0.7 0
18.6 0.7 0
18.9 0.7 0
19.2 0.7 0
19.5 0.7 0
19.8 0.7 0
20.1 0.7 0
20.4 0.7 0
20.7 0.7 0
21 0.7 0
21.3 0.7 0
21.6 0.7 0
21.9 0.7 0
22.2 0.7 0
22.5 0.7 0
22.8 0.7 0
23.1 0.7 0
23.4 0.7 0
23.7 0.7 0
24 0.7 0
24.3 0.7 0
24.6 0.7 0
24.9 0.7 0
25.2 0.7 0
25.5 0.7 0
25.8 0.7 0
26.1 0.7 0
26.4 0.7 0
26.7 0.7 0
27 0.7 0
27.3 0.7 0
27.6 0.7 0
27.9 0.7 0
28.2 0.7 0
28.5 0.7 0
28.8 0.7 0
29.1 0.7 0
29.4 0.7 0
29.7 0.7 0
30 0.7 0
0 0.8 0
0.3 0.8 0
0.6 0.8 0
0.9 0.8 0
1.2 0.8 0
1.5 0.8 0
1.8 0.8 0
2.1 0.8 0
2.4 0.8 0
2.7 0.8 0
3 0.8 0
3.3 0.8 0
3.6 0.8 0
3.9 0.8 0
4.2 0.8 0
4.5 0.8 0
4.8 0.8 0
5.1 0.8 0
5.4 0.8 0
5.7 0.8 0
6 0.8 0
6.3 0.8 0
6.6 0.8 0
6.9 0.8 0
7.2 0.8 0
7.5 0.8 0
7.8 0.8 0
8.1 0.8 0
8.4 0.8 0
8.7 0.8 0
9 0.8 0
9.3 0.8 0
9.6 0.8 0
9.9 0.8 0
10.2 0.8 0
10.5 0.8 0
10.8 0.8 0
11.1 0.8 0
11.4 0.8 0
11.7 0.8 0
12 0.8 0
12.3 0.8 0
12.6 0.8 0
12.9 0.8 0
13.2 0.8 0
13.5 0.8 0
13.8 0.8 0
14.1 0.8 0
14.4 0.8 0
14.7 0.8 0
15 0.8 0
15.3 0.8 0
15.6 0.8 0
15.9 0.8 0
16.2 0.8 0
16.5 0.8 0
16.8 0.8 0
17.1 0.8 0
17.4 0.8 0
17.7 0.8 0
18 0.8 0
18.3 0.8 0
18.6 0.8 0
18.9 0.8 0
19.2 0.8 0
19.5 0.8 0
19.8 0.8 0
20.1 0.8 0
20.4 0.8 0
20.7 0.8 0
21 0.8 0
21.3 0.8 0
21.6 0.8 0
21.9 0.8 0
22.2 0.8 0
22.5 0.8 0
22.8 0.8 0
23.1 0.8 0
23.4 0.8 0
23.7 0.8 0
24 0.8 0
24.3 0.8 0
24.6 0.8 0
24.9 0.8 0
25.2 0.8 0
25.5 0.8 0
25.8 0.8 0
26.1 0.8 0
26.4 0.8 0
26.7 0.8 0
27 0.8 0
27.3 0.8 0
27.6 0.8 0
27.9 0.8 0
28.2 0.8 0
28.5 0.8 0
28.8 0.8 0
29.1 0.8 0
29.4 0.8 0
29.7 0.8 0
30 0.8 0
0 0.9 0
0.3 0.9 0
0.6 0.9 0
0.9 0.9 0
1.2 0.9 0
1.5 0.9 0
1.8 0.9 0
2.1 0.9 0
2.4 0.9 0
2.7 0.9 0
3 0.9 0
3.3 0.9 0
3.6 0.9 0
3.9 0.9 0
4.2 0.9 0
4.5 0.9 0
4.8 0.9 0
5.1 0.9 0
5.4 0.9 0
5.7 0.9 0
6 0.9 0
6.3 0.9 0
6.6 0.9 0
6.9 0.9 0
7.2 0.9 0
7.5 0.9 0
7.8 0.9 0
8.1 0.9 0
8.4 0.9 0
8.7 0.9 0
9 0.9 0
9.3 0.9 0
9.6 0.9 0
9.9 0.9 0
10.2 0.9 0
10.5 0.9 0
10.8 0.9 0
11.1 0.9 0
11.4 0.9 0
11.7 0.9 0
12 0.9 0
12.3 0.9 0
12.6 0.9 0
12.9 0.9 0
13.2 0.9 0
13.5 0.9 0
13.8 0.9 0
14.1 0.9 0
14.4 0.9 0
14.7 0.9 0
15 0.9 0
15.3 0.9 0
15.6 0.9 0
15.9 0.9 0
16.2 0.9 0
16.5 0.9 0
16.8 0.9 0
17.1 0.9 0
17.4 0.9 0
17.7 0.9 0
18 0.9 0
18.3 0.9 0
18.6 0.9 0
18.9 0.9 0
19.2 0.9 0
19.5 0.9 0
19.8 0.9 0
20.1 0.9 0
20.4 0.9 0
20.7 0.9 0
21 0.9 0
21.3 0.9 0
21.6 0.9 0
21.9 0.9 0
22.2 0.9 0
22.5 0.9 0
22.8 0.9 0
23.1 0.9 0
23.4 0.9 0
23.7 0.9 0
24 0.9 0
24.3 0.9 0
24.6 0.9 0
24.9 0.9 0
25.2 0.9 0
25.5 0.9 0
25.8 0.9 0
26.1 0.9 0
26.4 0.9 0
26.7 0.9 0
27 0.9 0
27.3 0.9 0
27.6 0.9 0
27.9 0.9 0
28.2 0.9 0
28.5 0.9 0
28.8 0.9 0
29.1 0.9 0
29.4 0.9 0
29.7 0.9 0
30 0.9 0
0 1 0
0.3 1 0
0.6 1 0
0.9 1 0
1.2 1 0
1.5 1 0
1.8 1 0
2.1 1 0
2.4 1 0
2.7 1 0
3 1 0
3.3 1 0
3.6 1 0
3.9 1 0
4.2 1 0
4.5 1 0
4.8 1 0
5.1 1 0
5.4 1 0
5.7 1 0
6 1 0
6.3 1 0
6.6 1 0
6.9 1 0
7.2 1 0
7.5 1 0
7.8 1 0
8.1 1 0
8.4 1 0
8.7 1 0
9 1 0
9.3 1 0
9.6 1 0
9.9 1 0
10.2 1 0
10.5 1 0
10.8 1 0
11.1 1 0
11.4 1 0
11.7 1 0
12 1 0
12.3 1 0
12.6 1 0
12.9 1 0
13.2 1 0
13.5 1 0
13.8 1 0
14.1 1 0
14.4 1 0
14.7 1 0
15 1 0
15.3 1 0
15.6 1 0
15.9 1 0
16.2 1 0
16.5 1 0
16.8 1 0
17.1 1 0
17.4 1 0
17.7 1 0
18 1 0
18.3 1 0
18.6 1 0
18.9 1 0
19.2 1 0
19.5 1 0
19.8 1 0
20.1 1 0
20.4 1 0
20.7 1 0
21 1 0
21.3 1 0
21.6 1 0
21.9 1 0
22.2 1 0
22.5 1 0
22.8 1 0
23.1 1 0
23.4 1 0
23.7 1 0
24 1 0
24.3 1 0
24.6 1 0
24.9 1 0
25.2 1 0
25.5 1 0
25.8 1 0
26.1 1 0
26.4 1 0
26.7 1 0
27 1 0
27.3 1 0
27.6 1 0
27.9 1 0
28.2 1 0
28.5 1 0
28.8 1 0
29.1 1 0
29.4 1 0
29.7 1 0
30 1 0

POINT_DATA 1111

SCALARS phi double
LOOKUP_TABLE default
0.973612
1.02639
0.873207
0.527207
0.23461
0.082166
0.0237614
0.00584913
0.00125082
0.000235916
3.97202e-05
6.02941e-06
8.32091e-07
1.05141e-07
1.22377e-08
1.31889e-09
1.32205e-10
1.23734e-11
1.08486e-12
8.93615e-14
6.93231e-15
5.07535e-16
3.51308e-17
2.30251e-18
1.43074e-19
8.43799e-21
4.72754e-22
2.5182e-23
1.27613e-24
6.15605e-26
2.82828e-27
1.23807e-28
5.16572e-30
2.05503e-31
7.79695e-33
2.82197e-34
9.74504e-36
3.21132e-37
1.00996e-38
3.03159e-40
8.6857e-42
2.37521e-43
6.19931e-45
1.54415e-46
3.67015e-48
8.32243e-50
1.80007e-51
3.71267e-53
7.29954e-55
1.36759e-56
2.44047e-58
4.14604e-60
6.7018e-62
1.03008e-63
1.5044e-65
2.08606e-67
2.74396e-69
3.42051e-71
4.03645e-73
4.50382e-75
4.74524e-77
4.71402e-79
4.40829e-81
3.87351e-83
3.19163e-85
2.46041e-87
1.77005e-89
1.18494e-91
7.35752e-94
4.22162e-96
2.22891e-98
1.07754e-100
4.74256e-103
1.88747e-105
6.73769e-108
2.13608e-110
5.94126e-113
1.42734e-115
2.90189e-118
4.85481e-121
6.41712e-124
6.2838e-127
4.05257e-130
1.2912e-133
1.77568e-141
0
0
0
0
0
0
0
0
0
0
0
0
0
0
0
0
0.973612
1.02639
0.873207
0.527207
0.23461
0.082166
0.0237614
0.00584913
0.00125082
0.000235916
3.97202e-05
6.02941e-06
8.32091e-07
1.05141e-07
1.22377e-08
1.31889e-09
1.32205e-10
1.23734e-11
1.08486e-12
8.93615e-14
6.93231e-15
5.07535e-16
3.51308e-17
2.30251e-18
1.43074e-19
8.43799e-21
4.72754e-22
2.5182e-23
1.27613e-24
6.15605e-26
2.82828e-27
1.23807e-28
5.16572e-30
2.05503e-31
7.79695e-33
2.82197e-34
9.74504e-36
3.21132e-37
1.00996e-38
3.03159e-40
8.6857e-42
2.37521e-43
6.19931e-45
1.54415e-46
3.67015e-48
8.32243e-50
1.80007e-51
3.71267e-53
7.29954e-55
1.36759e-56
2.44047e-58
4.14604e-60
6.7018e-62
1.03008e-63
1.5044e-65
2.08606e-67
2.74396e-69
3.42051e-71
4.03645e-73
4.50382e-75
4.74524e-77
4.71402e-79
4.40829e-81
3.87351e-83
3.19163e-85
2.46041e-87
1.77005e-89
1.18494e-91
7.35752e-94
4.22162e-96
2.22891e-98
1.07754e-100
4.74256e-103
1.88747e-105
6.73769e-108
2.13608e-110
5.94126e-113
1.42734e-115
2.90189e-118
4.85481e-121
6.41712e-124
6.2838e-127
4.05257e-130
1.2912e-133
1.77568e-141
0
0
0
0
0
0
0
0
0
0
0
0
0
0
0
0
0.974389
1.02561
0.913655
0.625579
0.333651
0.143076
0.050769
0.0152647
0.00396372
0.000902494
0.000182395
3.30462e-05
5.41159e-06
8.06494e-07
1.1002e-07
1.38067e-08
1.60076e-09
1.72108e-10
1.72161e-11
1.6069e-12
1.40305e-13
1.14863e-14
8.83471e-16
6.39596e-17
4.36549e-18
2.81328e-19
1.71406e-20
9.88533e-22
5.40229e-23
2.80032e-24
1.37804e-25
6.44288e-27
2.86396e-28
1.21113e-29
4.87523e-31
1.8689e-32
6.82572e-34
2.37593e-35
7.88447e-37
2.495e-38
7.5302e-40
2.1679e-41
5.95391e-43
1.55994e-44
3.89891e-46
9.29559e-48
2.11373e-49
4.58336e-51
9.47486e-53
1.86676e-54
3.5041e-56
6.26408e-58
1.06591e-59
1.72555e-61
2.65588e-63
3.88383e-65
5.39194e-67
7.1004e-69
8.8604e-71
1.04662e-72
1.16889e-74
1.23261e-76
1.22551e-78
1.14691e-80
1.00851e-82
8.31544e-85
6.41449e-87
4.61748e-89
3.09291e-91
1.92149e-93
1.10308e-95
5.82679e-98
2.81819e-100
1.24089e-102
4.94053e-105
1.76428e-107
5.59533e-110
1.55679e-112
3.74119e-115
7.60823e-118
1.27317e-120
1.68328e-123
1.64866e-126
1.06346e-129
3.38883e-133
0
0
0
0
0
0
0
0
0
0
0
0
0
0
0
0
0.975008
1.02499
0.919832
0.642086
0.351343
0.154791
0.0563984
0.0173925
0.00462689
0.00107816
0.000222787
4.12354e-05
6.89324e-06
1.04802e-06
1.45768e-07
1.86419e-08
2.20166e-09
2.41039e-10
2.45439e-11
2.33129e-12
2.07095e-13
1.72453e-14
1.34896e-15
9.93008e-17
6.89059e-18
4.51397e-19
2.7954e-20
1.63847e-21
9.09947e-23
4.79297e-24
2.39656e-25
1.13844e-26
5.14139e-28
2.20887e-29
9.03278e-31
3.51761e-32
1.30506e-33
4.61457e-35
1.55552e-36
5.00006e-38
1.53288e-39
4.48264e-41
1.25052e-42
3.32803e-44
8.44922e-46
2.04619e-47
4.72625e-49
1.041e-50
2.18599e-52
4.375e-54
8.3423e-56
1.51493e-57
2.61873e-59
4.30667e-61
6.73405e-63
1.00044e-64
1.41108e-66
1.88788e-68
2.39355e-70
2.87269e-72
3.25984e-74
3.49291e-76
3.52881e-78
3.3559e-80
2.99875e-82
2.51272e-84
1.96986e-86
1.44115e-88
9.81114e-91
6.19522e-93
3.61503e-95
1.94106e-97
9.54341e-100
4.2718e-102
1.72909e-104
6.27766e-107
2.02425e-109
5.72662e-112
1.39937e-114
2.89391e-117
4.92482e-120
6.62197e-123
6.5965e-126
4.32794e-129
1.40286e-132
0
0
0
0
0
0
0
0
0
0
0
0
0
0
0
0
0.977462
1.02254
0.911745
0.634029
0.346623
0.152882
0.0558244
0.0172605
0.00460428
0.00107579
0.000222887
4.13599e-05
6.9313e-06
1.05635e-06
1.47272e-07
1.88773e-08
2.2344e-09
2.45151e-10
2.50151e-11
2.38091e-12
2.11927e-13
1.76822e-14
1.38577e-15
1.02201e-16
7.10481e-18
4.66263e-19
2.89252e-20
1.69831e-21
9.44766e-23
4.98459e-24
2.49641e-25
1.18775e-26
5.37244e-28
2.31166e-29
9.46731e-31
3.69225e-32
1.37184e-33
4.85754e-35
1.6397e-36
5.27783e-38
1.6202e-39
4.74424e-41
1.3252e-42
3.53125e-44
8.97628e-46
2.17647e-47
5.03318e-49
1.10991e-50
2.33335e-52
4.67517e-54
8.92448e-56
1.6224e-57
2.80746e-59
4.62182e-61
7.23414e-63
1.0758e-64
1.51884e-66
2.03397e-68
2.58115e-70
3.10063e-72
3.52159e-74
3.77662e-76
3.81862e-78
3.63446e-80
3.25023e-82
2.72554e-84
2.1383e-86
1.56551e-88
1.06653e-90
6.73919e-93
3.93504e-95
2.11424e-97
1.04013e-99
4.65856e-102
1.88672e-104
6.85372e-107
2.21117e-109
6.25858e-112
1.5301e-114
3.16572e-117
5.38974e-120
7.25011e-123
7.22506e-126
4.74209e-129
1.53764e-132
0
0
0
0
0
0
0
0
0
0
0
0
0
0
0
0
1.03106
0.968943
0.812357
0.549394
0.296696
0.130143
0.0474026
0.0146411
0.00390448
0.000912472
0.000189149
3.51258e-05
5.89204e-06
8.98921e-07
1.2547e-07
1.6103e-08
1.90856e-09
2.09693e-10
2.14281e-11
2.04256e-12
1.82091e-13
1.52168e-14
1.19449e-15
8.82401e-17
6.14462e-18
4.03943e-19
2.51029e-20
1.4765e-21
8.22858e-23
4.34935e-24
2.18231e-25
1.04026e-26
4.71429e-28
2.03239e-29
8.33987e-31
3.259e-32
1.21329e-33
4.30488e-35
1.45613e-36
4.69671e-38
1.44484e-39
4.23975e-41
1.18683e-42
3.16943e-44
8.07428e-46
1.96212e-47
4.54771e-49
1.00513e-50
2.11795e-52
4.25346e-54
8.13858e-56
1.48305e-57
2.57249e-59
4.24529e-61
6.66111e-63
9.93045e-65
1.40552e-66
1.88699e-68
2.40077e-70
2.89142e-72
3.29257e-74
3.54036e-76
3.58931e-78
3.42544e-80
3.07169e-82
2.58292e-84
2.03206e-86
1.49193e-88
1.0193e-90
6.45928e-93
3.78258e-95
2.0383e-97
1.00575e-99
4.5181e-102
1.83538e-104
6.68768e-107
2.16429e-109
6.14505e-112
1.5071e-114
3.12809e-117
5.34287e-120
7.21051e-123
7.20929e-126
4.7475e-129
1.54457e-132
0
0
0
0
0
0
0
0
0
0
0
0
0
0
0
0
-0.0487608
0.0487608
0.0915555
0.0812741
0.0499656
0.0235053
0.0089088
0.00281546
0.000760557
0.000178901
3.71674e-05
6.89667e-06
1.15336e-06
1.75132e-07
2.42965e-08
3.09593e-09
3.63977e-10
3.96361e-11
4.01171e-12
3.78524e-13
3.33836e-14
2.75849e-15
2.14003e-16
1.56168e-17
1.07379e-18
6.96708e-20
4.27149e-21
2.47761e-22
1.36109e-23
7.08875e-25
3.50319e-26
1.64403e-27
7.33191e-29
3.10923e-30
1.25446e-31
4.81767e-33
1.76186e-34
6.13775e-36
2.03741e-37
6.44578e-39
1.94391e-40
5.58897e-42
1.53202e-43
4.00389e-45
9.97605e-47
2.36947e-48
5.36402e-50
1.15713e-51
2.37798e-53
4.65394e-55
8.67062e-57
1.53707e-58
2.59133e-60
4.15215e-62
6.31899e-64
9.12671e-66
1.24997e-67
1.62178e-69
1.99126e-71
2.31096e-73
2.53173e-75
2.61438e-77
2.54064e-79
2.31929e-81
1.98485e-83
1.58884e-85
1.18663e-87
8.2449e-90
5.31233e-92
3.16234e-94
1.73186e-96
8.6829e-99
3.96254e-101
1.63493e-103
6.04944e-106
1.98765e-108
5.72866e-111
1.42591e-113
3.00315e-116
5.20406e-119
7.12411e-122
7.22405e-125
4.82399e-128
1.59124e-131
0
0
0
0
0
0
0
0
0
0
0
0
0
0
0
0
0
-0.001985
0.001985
0.00629755
0.00679486
0.00465443
0.00232959
0.000914479
0.000294627
8.03661e-05
1.89732e-05
3.94011e-06
7.28709e-07
1.21205e-07
1.82747e-08
2.51414e-09
3.17344e-10
3.69244e-11
3.97643e-12
3.97736e-13
3.7064e-14
3.22658e-15
2.63029e-16
2.01215e-17
1.44722e-18
9.80321e-20
6.26349e-21
3.77984e-22
2.15709e-23
1.16542e-24
5.96671e-26
2.89744e-27
1.33555e-28
5.84753e-30
2.43344e-31
9.63024e-33
3.62598e-34
1.29944e-35
4.43382e-37
1.44081e-38
4.45996e-40
1.31528e-41
3.69583e-43
9.89517e-45
2.52433e-46
6.13544e-48
1.42058e-49
3.13269e-51
6.57804e-53
1.31481e-54
2.50067e-56
4.52354e-58
7.77875e-60
1.27085e-61
1.97123e-63
2.9008e-65
4.04638e-67
5.34532e-69
6.68011e-71
7.88837e-73
8.79064e-75
9.23108e-77
9.11979e-79
8.46127e-81
7.35754e-83
5.98273e-85
4.53771e-87
3.20116e-89
2.09366e-91
1.26482e-93
7.02805e-96
3.57435e-98
1.65434e-100
6.9212e-103
2.59623e-105
8.64628e-108
2.52536e-110
6.3689e-113
1.35885e-115
2.38499e-118
3.30637e-121
3.39473e-124
2.29491e-127
7.6623e-131
0
0
0
0
0
0
0
0
0
0
0
0
0
0
0
0
0
0
-6.4037e-05
6.4037e-05
0.000310389
0.000394988
0.000296957
0.000156104
6.27044e-05
2.03638e-05
5.54971e-06
1.30183e-06
2.67647e-07
4.8881e-08
8.01355e-09
1.18918e-09
1.60835e-10
1.99393e-11
2.27684e-12
2.40466e-13
2.35739e-14
2.15193e-15
1.83415e-16
1.46321e-17
1.09491e-18
7.69987e-20
5.09757e-21
3.18187e-22
1.87514e-23
1.0446e-24
5.50695e-26
2.75003e-27
1.302e-28
5.84885e-30
2.49468e-31
1.01089e-32
3.89377e-34
1.42629e-35
4.97033e-37
1.64831e-38
5.20328e-40
1.56381e-41
4.47523e-43
1.21956e-44
3.16481e-46
7.82045e-48
1.83995e-49
4.12097e-51
8.78435e-53
1.78161e-54
3.43676e-56
6.30286e-58
1.0984e-59
1.8179e-61
2.85551e-63
4.25381e-65
6.00476e-67
8.02474e-69
1.01422e-70
1.21088e-72
1.36386e-74
1.44717e-76
1.44428e-78
1.35329e-80
1.18814e-82
9.75235e-85
7.46486e-87
5.31335e-89
3.50549e-91
2.13581e-93
1.19666e-95
6.13553e-98
2.8623e-100
1.20677e-102
4.56104e-105
1.53021e-107
4.50167e-110
1.14333e-112
2.45623e-115
4.34016e-118
6.05656e-121
6.25856e-124
4.25762e-127
1.43032e-130
0
0
0
0
0
0
0
0
0
0
0
0
0
0
0
0
0
0
0
-1.8124e-06
1.8124e-06
1.36819e-05
1.9242e-05
1.46861e-05
7.51376e-06
2.88059e-06
8.85397e-07
2.27608e-07
5.03059e-08
9.74393e-09
1.67727e-09
2.59344e-10
3.63282e-11
4.64201e-12
5.44196e-13
5.88157e-14
5.88452e-15
5.46959e-16
4.73771e-17
3.83466e-18
2.90714e-19
2.06871e-20
1.38433e-21
8.72582e-23
5.18855e-24
2.91428e-25
1.54801e-26
7.78454e-28
3.70948e-29
1.67639e-30
7.19017e-32
2.92877e-33
1.13359e-34
4.17124e-36
1.45978e-37
4.86044e-39
1.54008e-40
4.64502e-42
1.33373e-43
3.64604e-45
9.48989e-47
2.35163e-48
5.54761e-50
1.24566e-51
2.6617e-53
5.41074e-55
1.04603e-56
1.92236e-58
3.35675e-60
5.5661e-62
8.7589e-64
1.30706e-65
1.84813e-67
2.47375e-69
3.13125e-71
3.74383e-73
4.22273e-75
4.48667e-77
4.48348e-79
4.20621e-81
3.6973e-83
3.03825e-85
2.32816e-87
1.6589e-89
1.09558e-91
6.68167e-94
3.7472e-96
1.92302e-98
8.97906e-101
3.78888e-103
1.4332e-105
4.81215e-108
1.41676e-110
3.60094e-113
7.74148e-116
1.36887e-118
1.9115e-121
1.97653e-124
1.34546e-127
4.52273e-131
0
0
0
0
0
0
0
0
0
0
0
0
0
0
0
0
0
0
0
0
-1.8124e-06
1.8124e-06
1.36819e-05
1.9242e-05
1.46861e-05
7.51376e-06
2.88059e-06
8.85397e-07
2.27608e-07
5.03059e-08
9.74393e-09
1.67727e-09
2.59344e-10
3.63282e-11
4.64201e-12
5.44196e-13
5.88157e-14
5.88452e-15
5.46959e-16
4.73771e-17
3.83466e-18
2.90714e-19
2.06871e-20
1.38433e-21
8.72582e-23
5.18855e-24
2.91428e-25
1.54801e-26
7.78454e-28
3.70948e-29
1.67639e-30
7.19017e-32
2.92877e-33
1.13359e-34
4.17124e-36
1.45978e-37
4.86044e-39
1.54008e-40
4.64502e-42
1.33373e-43
3.64604e-45
9.48989e-47
2.35163e-48
5.54761e-50
1.24566e-51
2.6617e-53
5.41074e-55
1.04603e-56
1.92236e-58
3.35675e-60
5.5661e-62
8.7589e-64
1.30706e-65
1.84813e-67
2.47375e-69
3.13125e-71
3.74383e-73
4.22273e-75
4.48667e-77
4.48348e-79
4.20621e-81
3.6973e-83
3.03825e-85
2.32816e-87
1.6589e-89
1.09558e-91
6.68167e-94
3.7472e-96
1.92302e-98
8.97906e-101
3.78888e-103
1.4332e-105
4.81215e-108
1.41676e-110
3.60094e-113
7.74148e-116
1.36887e-118
1.9115e-121
1.97653e-124
1.34546e-127
4.52273e-131
0
0
0
0
0
0
0
0
0
0
0
0
0
0
0
0
0
0
0
0
