# vtk DataFile Version 2.0
FlowField
ASCII
DATASET STRUCTURED_GRID
DIMENSIONS 101 11 1 
POINTS 1111 double
0 0 0
0.3 0 0
0.6 0 0
0.9 0 0
1.2 0 0
1.5 0 0
1.8 0 0
2.1 0 0
2.4 0 0
2.7 0 0
3 0 0
3.3 0 0
3.6 0 0
3.9 0 0
4.2 0 0
4.5 0 0
4.8 0 0
5.1 0 0
5.4 0 0
5.7 0 0
6 0 0
6.3 0 0
6.6 0 0
6.9 0 0
7.2 0 0
7.5 0 0
7.8 0 0
8.1 0 0
8.4 0 0
8.7 0 0
9 0 0
9.3 0 0
9.6 0 0
9.9 0 0
10.2 0 0
10.5 0 0
10.8 0 0
11.1 0 0
11.4 0 0
11.7 0 0
12 0 0
12.3 0 0
12.6 0 0
12.9 0 0
13.2 0 0
13.5 0 0
13.8 0 0
14.1 0 0
14.4 0 0
14.7 0 0
15 0 0
15.3 0 0
15.6 0 0
15.9 0 0
16.2 0 0
16.5 0 0
16.8 0 0
17.1 0 0
17.4 0 0
17.7 0 0
18 0 0
18.3 0 0
18.6 0 0
18.9 0 0
19.2 0 0
19.5 0 0
19.8 0 0
20.1 0 0
20.4 0 0
20.7 0 0
21 0 0
21.3 0 0
21.6 0 0
21.9 0 0
22.2 0 0
22.5 0 0
22.8 0 0
23.1 0 0
23.4 0 0
23.7 0 0
24 0 0
24.3 0 0
24.6 0 0
24.9 0 0
25.2 0 0
25.5 0 0
25.8 0 0
26.1 0 0
26.4 0 0
26.7 0 0
27 0 0
27.3 0 0
27.6 0 0
27.9 0 0
28.2 0 0
28.5 0 0
28.8 0 0
29.1 0 0
29.4 0 0
29.7 0 0
30 0 0
0 0.1 0
0.3 0.1 0
0.6 0.1 0
0.9 0.1 0
1.2 0.1 0
1.5 0.1 0
1.8 0.1 0
2.1 0.1 0
2.4 0.1 0
2.7 0.1 0
3 0.1 0
3.3 0.1 0
3.6 0.1 0
3.9 0.1 0
4.2 0.1 0
4.5 0.1 0
4.8 0.1 0
5.1 0.1 0
5.4 0.1 0
5.7 0.1 0
6 0.1 0
6.3 0.1 0
6.6 0.1 0
6.9 0.1 0
7.2 0.1 0
7.5 0.1 0
7.8 0.1 0
8.1 0.1 0
8.4 0.1 0
8.7 0.1 0
9 0.1 0
9.3 0.1 0
9.6 0.1 0
9.9 0.1 0
10.2 0.1 0
10.5 0.1 0
10.8 0.1 0
11.1 0.1 0
11.4 0.1 0
11.7 0.1 0
12 0.1 0
12.3 0.1 0
12.6 0.1 0
12.9 0.1 0
13.2 0.1 0
13.5 0.1 0
13.8 0.1 0
14.1 0.1 0
14.4 0.1 0
14.7 0.1 0
15 0.1 0
15.3 0.1 0
15.6 0.1 0
15.9 0.1 0
16.2 0.1 0
16.5 0.1 0
16.8 0.1 0
17.1 0.1 0
17.4 0.1 0
17.7 0.1 0
18 0.1 0
18.3 0.1 0
18.6 0.1 0
18.9 0.1 0
19.2 0.1 0
19.5 0.1 0
19.8 0.1 0
20.1 0.1 0
20.4 0.1 0
20.7 0.1 0
21 0.1 0
21.3 0.1 0
21.6 0.1 0
21.9 0.1 0
22.2 0.1 0
22.5 0.1 0
22.8 0.1 0
23.1 0.1 0
23.4 0.1 0
23.7 0.1 0
24 0.1 0
24.3 0.1 0
24.6 0.1 0
24.9 0.1 0
25.2 0.1 0
25.5 0.1 0
25.8 0.1 0
26.1 0.1 0
26.4 0.1 0
26.7 0.1 0
27 0.1 0
27.3 0.1 0
27.6 0.1 0
27.9 0.1 0
28.2 0.1 0
28.5 0.1 0
28.8 0.1 0
29.1 0.1 0
29.4 0.1 0
29.7 0.1 0
30 0.1 0
0 0.2 0
0.3 0.2 0
0.6 0.2 0
0.9 0.2 0
1.2 0.2 0
1.5 0.2 0
1.8 0.2 0
2.1 0.2 0
2.4 0.2 0
2.7 0.2 0
3 0.2 0
3.3 0.2 0
3.6 0.2 0
3.9 0.2 0
4.2 0.2 0
4.5 0.2 0
4.8 0.2 0
5.1 0.2 0
5.4 0.2 0
5.7 0.2 0
6 0.2 0
6.3 0.2 0
6.6 0.2 0
6.9 0.2 0
7.2 0.2 0
7.5 0.2 0
7.8 0.2 0
8.1 0.2 0
8.4 0.2 0
8.7 0.2 0
9 0.2 0
9.3 0.2 0
9.6 0.2 0
9.9 0.2 0
10.2 0.2 0
10.5 0.2 0
10.8 0.2 0
11.1 0.2 0
11.4 0.2 0
11.7 0.2 0
12 0.2 0
12.3 0.2 0
12.6 0.2 0
12.9 0.2 0
13.2 0.2 0
13.5 0.2 0
13.8 0.2 0
14.1 0.2 0
14.4 0.2 0
14.7 0.2 0
15 0.2 0
15.3 0.2 0
15.6 0.2 0
15.9 0.2 0
16.2 0.2 0
16.5 0.2 0
16.8 0.2 0
17.1 0.2 0
17.4 0.2 0
17.7 0.2 0
18 0.2 0
18.3 0.2 0
18.6 0.2 0
18.9 0.2 0
19.2 0.2 0
19.5 0.2 0
19.8 0.2 0
20.1 0.2 0
20.4 0.2 0
20.7 0.2 0
21 0.2 0
21.3 0.2 0
21.6 0.2 0
21.9 0.2 0
22.2 0.2 0
22.5 0.2 0
22.8 0.2 0
23.1 0.2 0
23.4 0.2 0
23.7 0.2 0
24 0.2 0
24.3 0.2 0
24.6 0.2 0
24.9 0.2 0
25.2 0.2 0
25.5 0.2 0
25.8 0.2 0
26.1 0.2 0
26.4 0.2 0
26.7 0.2 0
27 0.2 0
27.3 0.2 0
27.6 0.2 0
27.9 0.2 0
28.2 0.2 0
28.5 0.2 0
28.8 0.2 0
29.1 0.2 0
29.4 0.2 0
29.7 0.2 0
30 0.2 0
0 0.3 0
0.3 0.3 0
0.6 0.3 0
0.9 0.3 0
1.2 0.3 0
1.5 0.3 0
1.8 0.3 0
2.1 0.3 0
2.4 0.3 0
2.7 0.3 0
3 0.3 0
3.3 0.3 0
3.6 0.3 0
3.9 0.3 0
4.2 0.3 0
4.5 0.3 0
4.8 0.3 0
5.1 0.3 0
5.4 0.3 0
5.7 0.3 0
6 0.3 0
6.3 0.3 0
6.6 0.3 0
6.9 0.3 0
7.2 0.3 0
7.5 0.3 0
7.8 0.3 0
8.1 0.3 0
8.4 0.3 0
8.7 0.3 0
9 0.3 0
9.3 0.3 0
9.6 0.3 0
9.9 0.3 0
10.2 0.3 0
10.5 0.3 0
10.8 0.3 0
11.1 0.3 0
11.4 0.3 0
11.7 0.3 0
12 0.3 0
12.3 0.3 0
12.6 0.3 0
12.9 0.3 0
13.2 0.3 0
13.5 0.3 0
13.8 0.3 0
14.1 0.3 0
14.4 0.3 0
14.7 0.3 0
15 0.3 0
15.3 0.3 0
15.6 0.3 0
15.9 0.3 0
16.2 0.3 0
16.5 0.3 0
16.8 0.3 0
17.1 0.3 0
17.4 0.3 0
17.7 0.3 0
18 0.3 0
18.3 0.3 0
18.6 0.3 0
18.9 0.3 0
19.2 0.3 0
19.5 0.3 0
19.8 0.3 0
20.1 0.3 0
20.4 0.3 0
20.7 0.3 0
21 0.3 0
21.3 0.3 0
21.6 0.3 0
21.9 0.3 0
22.2 0.3 0
22.5 0.3 0
22.8 0.3 0
23.1 0.3 0
23.4 0.3 0
23.7 0.3 0
24 0.3 0
24.3 0.3 0
24.6 0.3 0
24.9 0.3 0
25.2 0.3 0
25.5 0.3 0
25.8 0.3 0
26.1 0.3 0
26.4 0.3 0
26.7 0.3 0
27 0.3 0
27.3 0.3 0
27.6 0.3 0
27.9 0.3 0
28.2 0.3 0
28.5 0.3 0
28.8 0.3 0
29.1 0.3 0
29.4 0.3 0
29.7 0.3 0
30 0.3 0
0 0.4 0
0.3 0.4 0
0.6 0.4 0
0.9 0.4 0
1.2 0.4 0
1.5 0.4 0
1.8 0.4 0
2.1 0.4 0
2.4 0.4 0
2.7 0.4 0
3 0.4 0
3.3 0.4 0
3.6 0.4 0
3.9 0.4 0
4.2 0.4 0
4.5 0.4 0
4.8 0.4 0
5.1 0.4 0
5.4 0.4 0
5.7 0.4 0
6 0.4 0
6.3 0.4 0
6.6 0.4 0
6.9 0.4 0
7.2 0.4 0
7.5 0.4 0
7.8 0.4 0
8.1 0.4 0
8.4 0.4 0
8.7 0.4 0
9 0.4 0
9.3 0.4 0
9.6 0.4 0
9.9 0.4 0
10.2 0.4 0
10.5 0.4 0
10.8 0.4 0
11.1 0.4 0
11.4 0.4 0
11.7 0.4 0
12 0.4 0
12.3 0.4 0
12.6 0.4 0
12.9 0.4 0
13.2 0.4 0
13.5 0.4 0
13.8 0.4 0
14.1 0.4 0
14.4 0.4 0
14.7 0.4 0
15 0.4 0
15.3 0.4 0
15.6 0.4 0
15.9 0.4 0
16.2 0.4 0
16.5 0.4 0
16.8 0.4 0
17.1 0.4 0
17.4 0.4 0
17.7 0.4 0
18 0.4 0
18.3 0.4 0
18.6 0.4 0
18.9 0.4 0
19.2 0.4 0
19.5 0.4 0
19.8 0.4 0
20.1 0.4 0
20.4 0.4 0
20.7 0.4 0
21 0.4 0
21.3 0.4 0
21.6 0.4 0
21.9 0.4 0
22.2 0.4 0
22.5 0.4 0
22.8 0.4 0
23.1 0.4 0
23.4 0.4 0
23.7 0.4 0
24 0.4 0
24.3 0.4 0
24.6 0.4 0
24.9 0.4 0
25.2 0.4 0
25.5 0.4 0
25.8 0.4 0
26.1 0.4 0
26.4 0.4 0
26.7 0.4 0
27 0.4 0
27.3 0.4 0
27.6 0.4 0
27.9 0.4 0
28.2 0.4 0
28.5 0.4 0
28.8 0.4 0
29.1 0.4 0
29.4 0.4 0
29.7 0.4 0
30 0.4 0
0 0.5 0
0.3 0.5 0
0.6 0.5 0
0.9 0.5 0
1.2 0.5 0
1.5 0.5 0
1.8 0.5 0
2.1 0.5 0
2.4 0.5 0
2.7 0.5 0
3 0.5 0
3.3 0.5 0
3.6 0.5 0
3.9 0.5 0
4.2 0.5 0
4.5 0.5 0
4.8 0.5 0
5.1 0.5 0
5.4 0.5 0
5.7 0.5 0
6 0.5 0
6.3 0.5 0
6.6 0.5 0
6.9 0.5 0
7.2 0.5 0
7.5 0.5 0
7.8 0.5 0
8.1 0.5 0
8.4 0.5 0
8.7 0.5 0
9 0.5 0
9.3 0.5 0
9.6 0.5 0
9.9 0.5 0
10.2 0.5 0
10.5 0.5 0
10.8 0.5 0
11.1 0.5 0
11.4 0.5 0
11.7 0.5 0
12 0.5 0
12.3 0.5 0
12.6 0.5 0
12.9 0.5 0
13.2 0.5 0
13.5 0.5 0
13.8 0.5 0
14.1 0.5 0
14.4 0.5 0
14.7 0.5 0
15 0.5 0
15.3 0.5 0
15.6 0.5 0
15.9 0.5 0
16.2 0.5 0
16.5 0.5 0
16.8 0.5 0
17.1 0.5 0
17.4 0.5 0
17.7 0.5 0
18 0.5 0
18.3 0.5 0
18.6 0.5 0
18.9 0.5 0
19.2 0.5 0
19.5 0.5 0
19.8 0.5 0
20.1 0.5 0
20.4 0.5 0
20.7 0.5 0
21 0.5 0
21.3 0.5 0
21.6 0.5 0
21.9 0.5 0
22.2 0.5 0
22.5 0.5 0
22.8 0.5 0
23.1 0.5 0
23.4 0.5 0
23.7 0.5 0
24 0.5 0
24.3 0.5 0
24.6 0.5 0
24.9 0.5 0
25.2 0.5 0
25.5 0.5 0
25.8 0.5 0
26.1 0.5 0
26.4 0.5 0
26.7 0.5 0
27 0.5 0
27.3 0.5 0
27.6 0.5 0
27.9 0.5 0
28.2 0.5 0
28.5 0.5 0
28.8 0.5 0
29.1 0.5 0
29.4 0.5 0
29.7 0.5 0
30 0.5 0
0 0.6 0
0.3 0.6 0
0.6 0.6 0
0.9 0.6 0
1.2 0.6 0
1.5 0.6 0
1.8 0.6 0
2.1 0.6 0
2.4 0.6 0
2.7 0.6 0
3 0.6 0
3.3 0.6 0
3.6 0.6 0
3.9 0.6 0
4.2 0.6 0
4.5 0.6 0
4.8 0.6 0
5.1 0.6 0
5.4 0.6 0
5.7 0.6 0
6 0.6 0
6.3 0.6 0
6.6 0.6 0
6.9 0.6 0
7.2 0.6 0
7.5 0.6 0
7.8 0.6 0
8.1 0.6 0
8.4 0.6 0
8.7 0.6 0
9 0.6 0
9.3 0.6 0
9.6 0.6 0
9.9 0.6 0
10.2 0.6 0
10.5 0.6 0
10.8 0.6 0
11.1 0.6 0
11.4 0.6 0
11.7 0.6 0
12 0.6 0
12.3 0.6 0
12.6 0.6 0
12.9 0.6 0
13.2 0.6 0
13.5 0.6 0
13.8 0.6 0
14.1 0.6 0
14.4 0.6 0
14.7 0.6 0
15 0.6 0
15.3 0.6 0
15.6 0.6 0
15.9 0.6 0
16.2 0.6 0
16.5 0.6 0
16.8 0.6 0
17.1 0.6 0
17.4 0.6 0
17.7 0.6 0
18 0.6 0
18.3 0.6 0
18.6 0.6 0
18.9 0.6 0
19.2 0.6 0
19.5 0.6 0
19.8 0.6 0
20.1 0.6 0
20.4 0.6 0
20.7 0.6 0
21 0.6 0
21.3 0.6 0
21.6 0.6 0
21.9 0.6 0
22.2 0.6 0
22.5 0.6 0
22.8 0.6 0
23.1 0.6 0
23.4 0.6 0
23.7 0.6 0
24 0.6 0
24.3 0.6 0
24.6 0.6 0
24.9 0.6 0
25.2 0.6 0
25.5 0.6 0
25.8 0.6 0
26.1 0.6 0
26.4 0.6 0
26.7 0.6 0
27 0.6 0
27.3 0.6 0
27.6 0.6 0
27.9 0.6 0
28.2 0.6 0
28.5 0.6 0
28.8 0.6 0
29.1 0.6 0
29.4 0.6 0
29.7 0.6 0
30 0.6 0
0 0.7 0
0.3 0.7 0
0.6 0.7 0
0.9 0.7 0
1.2 0.7 0
1.5 0.7 0
1.8 0.7 0
2.1 0.7 0
2.4 0.7 0
2.7 0.7 0
3 0.7 0
3.3 0.7 0
3.6 0.7 0
3.9 0.7 0
4.2 0.7 0
4.5 0.7 0
4.8 0.7 0
5.1 0.7 0
5.4 0.7 0
5.7 0.7 0
6 0.7 0
6.3 0.7 0
6.6 0.7 0
6.9 0.7 0
7.2 0.7 0
7.5 0.7 0
7.8 0.7 0
8.1 0.7 0
8.4 0.7 0
8.7 0.7 0
9 0.7 0
9.3 0.7 0
9.6 0.7 0
9.9 0.7 0
10.2 0.7 0
10.5 0.7 0
10.8 0.7 0
11.1 0.7 0
11.4 0.7 0
11.7 0.7 0
12 0.7 0
12.3 0.7 0
12.6 0.7 0
12.9 0.7 0
13.2 0.7 0
13.5 0.7 0
13.8 0.7 0
14.1 0.7 0
14.4 0.7 0
14.7 0.7 0
15 0.7 0
15.3 0.7 0
15.6 0.7 0
15.9 0.7 0
16.2 0.7 0
16.5 0.7 0
16.8 0.7 0
17.1 0.7 0
17.4 0.7 0
17.7 0.7 0
18 0.7 0
18.3 0.7 0
18.6 0.7 0
18.9 0.7 0
19.2 0.7 0
19.5 0.7 0
19.8 0.7 0
20.1 0.7 0
20.4 0.7 0
20.7 0.7 0
21 0.7 0
21.3 0.7 0
21.6 0.7 0
21.9 0.7 0
22.2 0.7 0
22.5 0.7 0
22.8 0.7 0
23.1 0.7 0
23.4 0.7 0
23.7 0.7 0
24 0.7 0
24.3 0.7 0
24.6 0.7 0
24.9 0.7 0
25.2 0.7 0
25.5 0.7 0
25.8 0.7 0
26.1 0.7 0
26.4 0.7 0
26.7 0.7 0
27 0.7 0
27.3 0.7 0
27.6 0.7 0
27.9 0.7 0
28.2 0.7 0
28.5 0.7 0
28.8 0.7 0
29.1 0.7 0
29.4 0.7 0
29.7 0.7 0
30 0.7 0
0 0.8 0
0.3 0.8 0
0.6 0.8 0
0.9 0.8 0
1.2 0.8 0
1.5 0.8 0
1.8 0.8 0
2.1 0.8 0
2.4 0.8 0
2.7 0.8 0
3 0.8 0
3.3 0.8 0
3.6 0.8 0
3.9 0.8 0
4.2 0.8 0
4.5 0.8 0
4.8 0.8 0
5.1 0.8 0
5.4 0.8 0
5.7 0.8 0
6 0.8 0
6.3 0.8 0
6.6 0.8 0
6.9 0.8 0
7.2 0.8 0
7.5 0.8 0
7.8 0.8 0
8.1 0.8 0
8.4 0.8 0
8.7 0.8 0
9 0.8 0
9.3 0.8 0
9.6 0.8 0
9.9 0.8 0
10.2 0.8 0
10.5 0.8 0
10.8 0.8 0
11.1 0.8 0
11.4 0.8 0
11.7 0.8 0
12 0.8 0
12.3 0.8 0
12.6 0.8 0
12.9 0.8 0
13.2 0.8 0
13.5 0.8 0
13.8 0.8 0
14.1 0.8 0
14.4 0.8 0
14.7 0.8 0
15 0.8 0
15.3 0.8 0
15.6 0.8 0
15.9 0.8 0
16.2 0.8 0
16.5 0.8 0
16.8 0.8 0
17.1 0.8 0
17.4 0.8 0
17.7 0.8 0
18 0.8 0
18.3 0.8 0
18.6 0.8 0
18.9 0.8 0
19.2 0.8 0
19.5 0.8 0
19.8 0.8 0
20.1 0.8 0
20.4 0.8 0
20.7 0.8 0
21 0.8 0
21.3 0.8 0
21.6 0.8 0
21.9 0.8 0
22.2 0.8 0
22.5 0.8 0
22.8 0.8 0
23.1 0.8 0
23.4 0.8 0
23.7 0.8 0
24 0.8 0
24.3 0.8 0
24.6 0.8 0
24.9 0.8 0
25.2 0.8 0
25.5 0.8 0
25.8 0.8 0
26.1 0.8 0
26.4 0.8 0
26.7 0.8 0
27 0.8 0
27.3 0.8 0
27.6 0.8 0
27.9 0.8 0
28.2 0.8 0
28.5 0.8 0
28.8 0.8 0
29.1 0.8 0
29.4 0.8 0
29.7 0.8 0
30 0.8 0
0 0.9 0
0.3 0.9 0
0.6 0.9 0
0.9 0.9 0
1.2 0.9 0
1.5 0.9 0
1.8 0.9 0
2.1 0.9 0
2.4 0.9 0
2.7 0.9 0
3 0.9 0
3.3 0.9 0
3.6 0.9 0
3.9 0.9 0
4.2 0.9 0
4.5 0.9 0
4.8 0.9 0
5.1 0.9 0
5.4 0.9 0
5.7 0.9 0
6 0.9 0
6.3 0.9 0
6.6 0.9 0
6.9 0.9 0
7.2 0.9 0
7.5 0.9 0
7.8 0.9 0
8.1 0.9 0
8.4 0.9 0
8.7 0.9 0
9 0.9 0
9.3 0.9 0
9.6 0.9 0
9.9 0.9 0
10.2 0.9 0
10.5 0.9 0
10.8 0.9 0
11.1 0.9 0
11.4 0.9 0
11.7 0.9 0
12 0.9 0
12.3 0.9 0
12.6 0.9 0
12.9 0.9 0
13.2 0.9 0
13.5 0.9 0
13.8 0.9 0
14.1 0.9 0
14.4 0.9 0
14.7 0.9 0
15 0.9 0
15.3 0.9 0
15.6 0.9 0
15.9 0.9 0
16.2 0.9 0
16.5 0.9 0
16.8 0.9 0
17.1 0.9 0
17.4 0.9 0
17.7 0.9 0
18 0.9 0
18.3 0.9 0
18.6 0.9 0
18.9 0.9 0
19.2 0.9 0
19.5 0.9 0
19.8 0.9 0
20.1 0.9 0
20.4 0.9 0
20.7 0.9 0
21 0.9 0
21.3 0.9 0
21.6 0.9 0
21.9 0.9 0
22.2 0.9 0
22.5 0.9 0
22.8 0.9 0
23.1 0.9 0
23.4 0.9 0
23.7 0.9 0
24 0.9 0
24.3 0.9 0
24.6 0.9 0
24.9 0.9 0
25.2 0.9 0
25.5 0.9 0
25.8 0.9 0
26.1 0.9 0
26.4 0.9 0
26.7 0.9 0
27 0.9 0
27.3 0.9 0
27.6 0.9 0
27.9 0.9 0
28.2 0.9 0
28.5 0.9 0
28.8 0.9 0
29.1 0.9 0
29.4 0.9 0
29.7 0.9 0
30 0.9 0
0 1 0
0.3 1 0
0.6 1 0
0.9 1 0
1.2 1 0
1.5 1 0
1.8 1 0
2.1 1 0
2.4 1 0
2.7 1 0
3 1 0
3.3 1 0
3.6 1 0
3.9 1 0
4.2 1 0
4.5 1 0
4.8 1 0
5.1 1 0
5.4 1 0
5.7 1 0
6 1 0
6.3 1 0
6.6 1 0
6.9 1 0
7.2 1 0
7.5 1 0
7.8 1 0
8.1 1 0
8.4 1 0
8.7 1 0
9 1 0
9.3 1 0
9.6 1 0
9.9 1 0
10.2 1 0
10.5 1 0
10.8 1 0
11.1 1 0
11.4 1 0
11.7 1 0
12 1 0
12.3 1 0
12.6 1 0
12.9 1 0
13.2 1 0
13.5 1 0
13.8 1 0
14.1 1 0
14.4 1 0
14.7 1 0
15 1 0
15.3 1 0
15.6 1 0
15.9 1 0
16.2 1 0
16.5 1 0
16.8 1 0
17.1 1 0
17.4 1 0
17.7 1 0
18 1 0
18.3 1 0
18.6 1 0
18.9 1 0
19.2 1 0
19.5 1 0
19.8 1 0
20.1 1 0
20.4 1 0
20.7 1 0
21 1 0
21.3 1 0
21.6 1 0
21.9 1 0
22.2 1 0
22.5 1 0
22.8 1 0
23.1 1 0
23.4 1 0
23.7 1 0
24 1 0
24.3 1 0
24.6 1 0
24.9 1 0
25.2 1 0
25.5 1 0
25.8 1 0
26.1 1 0
26.4 1 0
26.7 1 0
27 1 0
27.3 1 0
27.6 1 0
27.9 1 0
28.2 1 0
28.5 1 0
28.8 1 0
29.1 1 0
29.4 1 0
29.7 1 0
30 1 0

POINT_DATA 1111

SCALARS F double
LOOKUP_TABLE default
0
0
0
0
0
0
0
0
0
0
0
0
0
0
0
0
0
0
0
0
0
0
0
0
0
0
0
0
0
0
0
0
0
0
0
0
0
0
8.54733e-312
0
0
0
0
0
0
0
0
0
0
0
0
0
0
0
0
0
0
0
0
0
0
0
0
0
0
0
0
0
0
0
0
0
0
0
0
0
0
0
0
0
0
0
0
0
0
0
0
0
0
0
0
0
0
0
0
0
0
0
0
0
0
1
0.889752
0.780067
0.687381
0.613113
0.555133
0.510582
0.476628
0.450773
0.430975
0.415643
0.403586
0.393934
0.386058
0.379513
0.373981
0.369232
0.365104
0.361477
0.358261
0.355391
0.352814
0.350489
0.348385
0.346474
0.344735
0.343148
0.341697
0.34037
0.339153
0.338037
0.337014
0.336077
0.335221
0.334443
0.333738
0.333107
0.332546
0.332053
0.331625
0.33126
0.330954
0.3307
0.330494
0.330329
0.3302
0.330102
0.330027
0.329972
0.329932
0.329904
0.329884
0.32987
0.329861
0.329855
0.329851
0.329849
0.329848
0.329847
0.329846
0.329846
0.329846
0.329846
0.329846
0.329846
0.329846
0.329846
0.329846
0.329846
0.329846
0.329846
0.329846
0.329846
0.329846
0.329846
0.329846
0.329846
0.329846
0.329846
0.329846
0.329846
0.329846
0.329846
0.329846
0.329846
0.329846
0.329846
0.329846
0.329846
0.329846
0.329846
0.329846
0.329846
0.329846
0.329846
0.329846
0.329847
0.329847
0.329851
0.330355
0
1
1.02837
1.03709
1.03433
1.02568
1.01411
1.00127
0.988175
0.97538
0.963214
0.951843
0.941337
0.931704
0.922916
0.914925
0.907671
0.901094
0.895129
0.889719
0.884808
0.880346
0.876286
0.87259
0.869219
0.866142
0.86333
0.860757
0.8584
0.85624
0.854259
0.852442
0.850776
0.849251
0.847859
0.846594
0.845452
0.844428
0.843518
0.84272
0.842028
0.841437
0.84094
0.840528
0.840194
0.839926
0.839717
0.839556
0.839434
0.839344
0.839279
0.839232
0.8392
0.839178
0.839163
0.839153
0.839147
0.839143
0.839141
0.83914
0.839139
0.839138
0.839138
0.839138
0.839138
0.839138
0.839138
0.839138
0.839138
0.839138
0.839138
0.839138
0.839138
0.839138
0.839138
0.839138
0.839138
0.839138
0.839138
0.839138
0.839138
0.839138
0.839138
0.839138
0.839138
0.839138
0.839138
0.839138
0.839138
0.839138
0.839138
0.839138
0.839138
0.839138
0.839138
0.839138
0.839138
0.839139
0.839138
0.839158
0.839672
0
1
1.034
1.0725
1.10557
1.13205
1.15248
1.16784
1.17914
1.18732
1.19314
1.1972
1.19997
1.20179
1.20292
1.20355
1.20382
1.20382
1.20364
1.20333
1.20293
1.20248
1.20198
1.20148
1.20096
1.20045
1.19995
1.19947
1.199
1.19856
1.19814
1.19774
1.19737
1.19701
1.19668
1.19638
1.19609
1.19583
1.19559
1.19536
1.19517
1.19499
1.19483
1.19469
1.19458
1.19448
1.1944
1.19433
1.19428
1.19423
1.1942
1.19418
1.19416
1.19415
1.19414
1.19413
1.19413
1.19413
1.19413
1.19412
1.19412
1.19412
1.19412
1.19412
1.19412
1.19412
1.19412
1.19412
1.19412
1.19412
1.19412
1.19412
1.19412
1.19412
1.19412
1.19412
1.19412
1.19412
1.19412
1.19412
1.19412
1.19412
1.19412
1.19412
1.19412
1.19412
1.19412
1.19412
1.19412
1.19412
1.19412
1.19412
1.19412
1.19412
1.19412
1.19412
1.19412
1.19412
1.19412
1.19413
1.19462
0
1
1.02812
1.06976
1.11114
1.14842
1.18071
1.20816
1.23132
1.25088
1.26749
1.28172
1.29404
1.30479
1.31427
1.32268
1.33019
1.33694
1.34302
1.34852
1.35351
1.35805
1.36218
1.36595
1.36939
1.37254
1.37543
1.37807
1.3805
1.38273
1.38478
1.38666
1.38839
1.38997
1.39142
1.39274
1.39393
1.39501
1.39597
1.39681
1.39754
1.39817
1.3987
1.39914
1.39951
1.3998
1.40002
1.4002
1.40034
1.40044
1.40051
1.40056
1.4006
1.40062
1.40064
1.40065
1.40066
1.40066
1.40066
1.40067
1.40067
1.40067
1.40067
1.40067
1.40067
1.40067
1.40067
1.40067
1.40067
1.40067
1.40067
1.40067
1.40067
1.40067
1.40067
1.40067
1.40067
1.40067
1.40067
1.40067
1.40067
1.40067
1.40067
1.40067
1.40067
1.40067
1.40067
1.40067
1.40067
1.40067
1.40067
1.40067
1.40067
1.40067
1.40067
1.40067
1.40067
1.40067
1.40067
1.40065
1.40112
0
1
1.02583
1.06704
1.10935
1.14847
1.18319
1.21346
1.23965
1.26236
1.28215
1.29954
1.31496
1.32874
1.34115
1.35238
1.36259
1.37192
1.38045
1.38827
1.39546
1.40207
1.40815
1.41375
1.41891
1.42367
1.42806
1.43211
1.43585
1.4393
1.44249
1.44543
1.44814
1.45064
1.45293
1.45502
1.45692
1.45864
1.46018
1.46155
1.46274
1.46377
1.46465
1.46539
1.466
1.46649
1.46689
1.4672
1.46743
1.46761
1.46775
1.46784
1.46791
1.46796
1.46799
1.46802
1.46803
1.46804
1.46805
1.46805
1.46805
1.46805
1.46806
1.46806
1.46806
1.46806
1.46806
1.46806
1.46806
1.46806
1.46806
1.46806
1.46806
1.46806
1.46806
1.46806
1.46806
1.46806
1.46806
1.46806
1.46806
1.46806
1.46806
1.46806
1.46806
1.46806
1.46806
1.46806
1.46806
1.46806
1.46806
1.46806
1.46806
1.46806
1.46806
1.46806
1.46806
1.46806
1.46806
1.46803
1.46848
0
1
1.02812
1.06976
1.11114
1.14842
1.18071
1.20816
1.23132
1.25088
1.26749
1.28172
1.29404
1.30479
1.31427
1.32268
1.33019
1.33694
1.34302
1.34852
1.35351
1.35805
1.36218
1.36595
1.36939
1.37254
1.37543
1.37807
1.3805
1.38273
1.38478
1.38666
1.38839
1.38997
1.39142
1.39274
1.39394
1.39501
1.39597
1.39681
1.39754
1.39817
1.3987
1.39914
1.39951
1.3998
1.40003
1.4002
1.40034
1.40044
1.40051
1.40056
1.4006
1.40062
1.40064
1.40065
1.40066
1.40066
1.40067
1.40067
1.40067
1.40067
1.40067
1.40067
1.40067
1.40067
1.40067
1.40067
1.40067
1.40067
1.40067
1.40067
1.40067
1.40067
1.40067
1.40067
1.40067
1.40067
1.40067
1.40067
1.40067
1.40067
1.40067
1.40067
1.40067
1.40067
1.40067
1.40067
1.40067
1.40067
1.40067
1.40067
1.40067
1.40067
1.40067
1.40067
1.40067
1.40067
1.40067
1.40065
1.40112
0
1
1.034
1.0725
1.10557
1.13205
1.15248
1.16784
1.17914
1.18732
1.19314
1.1972
1.19997
1.20179
1.20292
1.20355
1.20382
1.20382
1.20364
1.20333
1.20293
1.20248
1.20198
1.20148
1.20096
1.20045
1.19995
1.19947
1.19901
1.19856
1.19814
1.19774
1.19737
1.19701
1.19668
1.19638
1.19609
1.19583
1.19559
1.19537
1.19517
1.19499
1.19483
1.19469
1.19458
1.19448
1.1944
1.19433
1.19428
1.19423
1.1942
1.19418
1.19416
1.19415
1.19414
1.19413
1.19413
1.19413
1.19413
1.19412
1.19412
1.19412
1.19412
1.19412
1.19412
1.19412
1.19412
1.19412
1.19412
1.19412
1.19412
1.19412
1.19412
1.19412
1.19412
1.19412
1.19412
1.19412
1.19412
1.19412
1.19412
1.19412
1.19412
1.19412
1.19412
1.19412
1.19412
1.19412
1.19412
1.19412
1.19412
1.19412
1.19412
1.19412
1.19412
1.19412
1.19412
1.19412
1.19412
1.19413
1.19462
0
1
1.02837
1.03709
1.03433
1.02568
1.01411
1.00127
0.988175
0.97538
0.963214
0.951844
0.941337
0.931704
0.922916
0.914925
0.907672
0.901094
0.89513
0.88972
0.884809
0.880346
0.876287
0.87259
0.86922
0.866143
0.863331
0.860758
0.858401
0.856241
0.85426
0.852442
0.850777
0.849252
0.84786
0.846595
0.845453
0.844428
0.843519
0.842721
0.842029
0.841438
0.84094
0.840529
0.840194
0.839927
0.839718
0.839557
0.839435
0.839345
0.83928
0.839233
0.839201
0.839179
0.839164
0.839154
0.839148
0.839144
0.839141
0.83914
0.839139
0.839139
0.839138
0.839138
0.839138
0.839138
0.839138
0.839138
0.839138
0.839138
0.839138
0.839138
0.839138
0.839138
0.839138
0.839138
0.839138
0.839138
0.839138
0.839138
0.839138
0.839138
0.839138
0.839138
0.839138
0.839138
0.839138
0.839138
0.839138
0.839138
0.839138
0.839138
0.839138
0.839138
0.839138
0.839138
0.839138
0.839139
0.839138
0.839158
0.839672
0
1
0.889752
0.780067
0.687381
0.613113
0.555133
0.510582
0.476628
0.450774
0.430975
0.415644
0.403587
0.393934
0.386059
0.379514
0.373981
0.369233
0.365104
0.361477
0.358262
0.355391
0.352814
0.35049
0.348386
0.346475
0.344735
0.343148
0.341698
0.34037
0.339153
0.338037
0.337014
0.336077
0.335222
0.334443
0.333739
0.333107
0.332546
0.332053
0.331626
0.331261
0.330954
0.3307
0.330494
0.33033
0.330201
0.330102
0.330027
0.329972
0.329932
0.329904
0.329884
0.329871
0.329862
0.329856
0.329852
0.329849
0.329848
0.329847
0.329847
0.329846
0.329846
0.329846
0.329846
0.329846
0.329846
0.329846
0.329846
0.329846
0.329846
0.329846
0.329846
0.329846
0.329846
0.329846
0.329846
0.329846
0.329846
0.329846
0.329846
0.329846
0.329846
0.329846
0.329846
0.329846
0.329846
0.329846
0.329846
0.329846
0.329846
0.329846
0.329846
0.329846
0.329846
0.329846
0.329846
0.329847
0.329847
0.329851
0.330355
0
0
0
0
0
0
0
0
0
0
0
0
0
0
0
0
0
0
0
0
0
0
0
0
0
0
0
0
0
0
0
0
0
0
0
0
0
0
0
0
0
0
0
0
0
0
0
0
0
0
0
0
0
0
0
0
0
0
0
0
0
0
0
0
0
0
0
0
0
0
0
0
0
0
0
0
0
0
0
0
0
0
0
0
8.54734e-312
0
0
0
0
0
0
0
0
0
0
0
0
0
0
0
0
0
