# vtk DataFile Version 2.0
FlowField
ASCII
DATASET STRUCTURED_GRID
DIMENSIONS 102 1 12 
POINTS 1224 double
0 0 0
0.4 0 0
0.8 0 0
1.2 0 0
1.6 0 0
2 0 0
2.4 0 0
2.8 0 0
3.2 0 0
3.6 0 0
4 0 0
4.4 0 0
4.8 0 0
5.2 0 0
5.6 0 0
6 0 0
6.4 0 0
6.8 0 0
7.2 0 0
7.6 0 0
8 0 0
8.4 0 0
8.8 0 0
9.2 0 0
9.6 0 0
10 0 0
10.4 0 0
10.8 0 0
11.2 0 0
11.6 0 0
12 0 0
12.4 0 0
12.8 0 0
13.2 0 0
13.6 0 0
14 0 0
14.4 0 0
14.8 0 0
15.2 0 0
15.6 0 0
16 0 0
16.4 0 0
16.8 0 0
17.2 0 0
17.6 0 0
18 0 0
18.4 0 0
18.8 0 0
19.2 0 0
19.6 0 0
20 0 0
20.4 0 0
20.8 0 0
21.2 0 0
21.6 0 0
22 0 0
22.4 0 0
22.8 0 0
23.2 0 0
23.6 0 0
24 0 0
24.4 0 0
24.8 0 0
25.2 0 0
25.6 0 0
26 0 0
26.4 0 0
26.8 0 0
27.2 0 0
27.6 0 0
28 0 0
28.4 0 0
28.8 0 0
29.2 0 0
29.6 0 0
30 0 0
30.4 0 0
30.8 0 0
31.2 0 0
31.6 0 0
32 0 0
32.4 0 0
32.8 0 0
33.2 0 0
33.6 0 0
34 0 0
34.4 0 0
34.8 0 0
35.2 0 0
35.6 0 0
36 0 0
36.4 0 0
36.8 0 0
37.2 0 0
37.6 0 0
38 0 0
38.4 0 0
38.8 0 0
39.2 0 0
39.6 0 0
40 0 0
40.4 0 0
0 0.1 0
0.4 0.1 0
0.8 0.1 0
1.2 0.1 0
1.6 0.1 0
2 0.1 0
2.4 0.1 0
2.8 0.1 0
3.2 0.1 0
3.6 0.1 0
4 0.1 0
4.4 0.1 0
4.8 0.1 0
5.2 0.1 0
5.6 0.1 0
6 0.1 0
6.4 0.1 0
6.8 0.1 0
7.2 0.1 0
7.6 0.1 0
8 0.1 0
8.4 0.1 0
8.8 0.1 0
9.2 0.1 0
9.6 0.1 0
10 0.1 0
10.4 0.1 0
10.8 0.1 0
11.2 0.1 0
11.6 0.1 0
12 0.1 0
12.4 0.1 0
12.8 0.1 0
13.2 0.1 0
13.6 0.1 0
14 0.1 0
14.4 0.1 0
14.8 0.1 0
15.2 0.1 0
15.6 0.1 0
16 0.1 0
16.4 0.1 0
16.8 0.1 0
17.2 0.1 0
17.6 0.1 0
18 0.1 0
18.4 0.1 0
18.8 0.1 0
19.2 0.1 0
19.6 0.1 0
20 0.1 0
20.4 0.1 0
20.8 0.1 0
21.2 0.1 0
21.6 0.1 0
22 0.1 0
22.4 0.1 0
22.8 0.1 0
23.2 0.1 0
23.6 0.1 0
24 0.1 0
24.4 0.1 0
24.8 0.1 0
25.2 0.1 0
25.6 0.1 0
26 0.1 0
26.4 0.1 0
26.8 0.1 0
27.2 0.1 0
27.6 0.1 0
28 0.1 0
28.4 0.1 0
28.8 0.1 0
29.2 0.1 0
29.6 0.1 0
30 0.1 0
30.4 0.1 0
30.8 0.1 0
31.2 0.1 0
31.6 0.1 0
32 0.1 0
32.4 0.1 0
32.8 0.1 0
33.2 0.1 0
33.6 0.1 0
34 0.1 0
34.4 0.1 0
34.8 0.1 0
35.2 0.1 0
35.6 0.1 0
36 0.1 0
36.4 0.1 0
36.8 0.1 0
37.2 0.1 0
37.6 0.1 0
38 0.1 0
38.4 0.1 0
38.8 0.1 0
39.2 0.1 0
39.6 0.1 0
40 0.1 0
40.4 0.1 0
0 0.2 0
0.4 0.2 0
0.8 0.2 0
1.2 0.2 0
1.6 0.2 0
2 0.2 0
2.4 0.2 0
2.8 0.2 0
3.2 0.2 0
3.6 0.2 0
4 0.2 0
4.4 0.2 0
4.8 0.2 0
5.2 0.2 0
5.6 0.2 0
6 0.2 0
6.4 0.2 0
6.8 0.2 0
7.2 0.2 0
7.6 0.2 0
8 0.2 0
8.4 0.2 0
8.8 0.2 0
9.2 0.2 0
9.6 0.2 0
10 0.2 0
10.4 0.2 0
10.8 0.2 0
11.2 0.2 0
11.6 0.2 0
12 0.2 0
12.4 0.2 0
12.8 0.2 0
13.2 0.2 0
13.6 0.2 0
14 0.2 0
14.4 0.2 0
14.8 0.2 0
15.2 0.2 0
15.6 0.2 0
16 0.2 0
16.4 0.2 0
16.8 0.2 0
17.2 0.2 0
17.6 0.2 0
18 0.2 0
18.4 0.2 0
18.8 0.2 0
19.2 0.2 0
19.6 0.2 0
20 0.2 0
20.4 0.2 0
20.8 0.2 0
21.2 0.2 0
21.6 0.2 0
22 0.2 0
22.4 0.2 0
22.8 0.2 0
23.2 0.2 0
23.6 0.2 0
24 0.2 0
24.4 0.2 0
24.8 0.2 0
25.2 0.2 0
25.6 0.2 0
26 0.2 0
26.4 0.2 0
26.8 0.2 0
27.2 0.2 0
27.6 0.2 0
28 0.2 0
28.4 0.2 0
28.8 0.2 0
29.2 0.2 0
29.6 0.2 0
30 0.2 0
30.4 0.2 0
30.8 0.2 0
31.2 0.2 0
31.6 0.2 0
32 0.2 0
32.4 0.2 0
32.8 0.2 0
33.2 0.2 0
33.6 0.2 0
34 0.2 0
34.4 0.2 0
34.8 0.2 0
35.2 0.2 0
35.6 0.2 0
36 0.2 0
36.4 0.2 0
36.8 0.2 0
37.2 0.2 0
37.6 0.2 0
38 0.2 0
38.4 0.2 0
38.8 0.2 0
39.2 0.2 0
39.6 0.2 0
40 0.2 0
40.4 0.2 0
0 0.3 0
0.4 0.3 0
0.8 0.3 0
1.2 0.3 0
1.6 0.3 0
2 0.3 0
2.4 0.3 0
2.8 0.3 0
3.2 0.3 0
3.6 0.3 0
4 0.3 0
4.4 0.3 0
4.8 0.3 0
5.2 0.3 0
5.6 0.3 0
6 0.3 0
6.4 0.3 0
6.8 0.3 0
7.2 0.3 0
7.6 0.3 0
8 0.3 0
8.4 0.3 0
8.8 0.3 0
9.2 0.3 0
9.6 0.3 0
10 0.3 0
10.4 0.3 0
10.8 0.3 0
11.2 0.3 0
11.6 0.3 0
12 0.3 0
12.4 0.3 0
12.8 0.3 0
13.2 0.3 0
13.6 0.3 0
14 0.3 0
14.4 0.3 0
14.8 0.3 0
15.2 0.3 0
15.6 0.3 0
16 0.3 0
16.4 0.3 0
16.8 0.3 0
17.2 0.3 0
17.6 0.3 0
18 0.3 0
18.4 0.3 0
18.8 0.3 0
19.2 0.3 0
19.6 0.3 0
20 0.3 0
20.4 0.3 0
20.8 0.3 0
21.2 0.3 0
21.6 0.3 0
22 0.3 0
22.4 0.3 0
22.8 0.3 0
23.2 0.3 0
23.6 0.3 0
24 0.3 0
24.4 0.3 0
24.8 0.3 0
25.2 0.3 0
25.6 0.3 0
26 0.3 0
26.4 0.3 0
26.8 0.3 0
27.2 0.3 0
27.6 0.3 0
28 0.3 0
28.4 0.3 0
28.8 0.3 0
29.2 0.3 0
29.6 0.3 0
30 0.3 0
30.4 0.3 0
30.8 0.3 0
31.2 0.3 0
31.6 0.3 0
32 0.3 0
32.4 0.3 0
32.8 0.3 0
33.2 0.3 0
33.6 0.3 0
34 0.3 0
34.4 0.3 0
34.8 0.3 0
35.2 0.3 0
35.6 0.3 0
36 0.3 0
36.4 0.3 0
36.8 0.3 0
37.2 0.3 0
37.6 0.3 0
38 0.3 0
38.4 0.3 0
38.8 0.3 0
39.2 0.3 0
39.6 0.3 0
40 0.3 0
40.4 0.3 0
0 0.4 0
0.4 0.4 0
0.8 0.4 0
1.2 0.4 0
1.6 0.4 0
2 0.4 0
2.4 0.4 0
2.8 0.4 0
3.2 0.4 0
3.6 0.4 0
4 0.4 0
4.4 0.4 0
4.8 0.4 0
5.2 0.4 0
5.6 0.4 0
6 0.4 0
6.4 0.4 0
6.8 0.4 0
7.2 0.4 0
7.6 0.4 0
8 0.4 0
8.4 0.4 0
8.8 0.4 0
9.2 0.4 0
9.6 0.4 0
10 0.4 0
10.4 0.4 0
10.8 0.4 0
11.2 0.4 0
11.6 0.4 0
12 0.4 0
12.4 0.4 0
12.8 0.4 0
13.2 0.4 0
13.6 0.4 0
14 0.4 0
14.4 0.4 0
14.8 0.4 0
15.2 0.4 0
15.6 0.4 0
16 0.4 0
16.4 0.4 0
16.8 0.4 0
17.2 0.4 0
17.6 0.4 0
18 0.4 0
18.4 0.4 0
18.8 0.4 0
19.2 0.4 0
19.6 0.4 0
20 0.4 0
20.4 0.4 0
20.8 0.4 0
21.2 0.4 0
21.6 0.4 0
22 0.4 0
22.4 0.4 0
22.8 0.4 0
23.2 0.4 0
23.6 0.4 0
24 0.4 0
24.4 0.4 0
24.8 0.4 0
25.2 0.4 0
25.6 0.4 0
26 0.4 0
26.4 0.4 0
26.8 0.4 0
27.2 0.4 0
27.6 0.4 0
28 0.4 0
28.4 0.4 0
28.8 0.4 0
29.2 0.4 0
29.6 0.4 0
30 0.4 0
30.4 0.4 0
30.8 0.4 0
31.2 0.4 0
31.6 0.4 0
32 0.4 0
32.4 0.4 0
32.8 0.4 0
33.2 0.4 0
33.6 0.4 0
34 0.4 0
34.4 0.4 0
34.8 0.4 0
35.2 0.4 0
35.6 0.4 0
36 0.4 0
36.4 0.4 0
36.8 0.4 0
37.2 0.4 0
37.6 0.4 0
38 0.4 0
38.4 0.4 0
38.8 0.4 0
39.2 0.4 0
39.6 0.4 0
40 0.4 0
40.4 0.4 0
0 0.5 0
0.4 0.5 0
0.8 0.5 0
1.2 0.5 0
1.6 0.5 0
2 0.5 0
2.4 0.5 0
2.8 0.5 0
3.2 0.5 0
3.6 0.5 0
4 0.5 0
4.4 0.5 0
4.8 0.5 0
5.2 0.5 0
5.6 0.5 0
6 0.5 0
6.4 0.5 0
6.8 0.5 0
7.2 0.5 0
7.6 0.5 0
8 0.5 0
8.4 0.5 0
8.8 0.5 0
9.2 0.5 0
9.6 0.5 0
10 0.5 0
10.4 0.5 0
10.8 0.5 0
11.2 0.5 0
11.6 0.5 0
12 0.5 0
12.4 0.5 0
12.8 0.5 0
13.2 0.5 0
13.6 0.5 0
14 0.5 0
14.4 0.5 0
14.8 0.5 0
15.2 0.5 0
15.6 0.5 0
16 0.5 0
16.4 0.5 0
16.8 0.5 0
17.2 0.5 0
17.6 0.5 0
18 0.5 0
18.4 0.5 0
18.8 0.5 0
19.2 0.5 0
19.6 0.5 0
20 0.5 0
20.4 0.5 0
20.8 0.5 0
21.2 0.5 0
21.6 0.5 0
22 0.5 0
22.4 0.5 0
22.8 0.5 0
23.2 0.5 0
23.6 0.5 0
24 0.5 0
24.4 0.5 0
24.8 0.5 0
25.2 0.5 0
25.6 0.5 0
26 0.5 0
26.4 0.5 0
26.8 0.5 0
27.2 0.5 0
27.6 0.5 0
28 0.5 0
28.4 0.5 0
28.8 0.5 0
29.2 0.5 0
29.6 0.5 0
30 0.5 0
30.4 0.5 0
30.8 0.5 0
31.2 0.5 0
31.6 0.5 0
32 0.5 0
32.4 0.5 0
32.8 0.5 0
33.2 0.5 0
33.6 0.5 0
34 0.5 0
34.4 0.5 0
34.8 0.5 0
35.2 0.5 0
35.6 0.5 0
36 0.5 0
36.4 0.5 0
36.8 0.5 0
37.2 0.5 0
37.6 0.5 0
38 0.5 0
38.4 0.5 0
38.8 0.5 0
39.2 0.5 0
39.6 0.5 0
40 0.5 0
40.4 0.5 0
0 0.6 0
0.4 0.6 0
0.8 0.6 0
1.2 0.6 0
1.6 0.6 0
2 0.6 0
2.4 0.6 0
2.8 0.6 0
3.2 0.6 0
3.6 0.6 0
4 0.6 0
4.4 0.6 0
4.8 0.6 0
5.2 0.6 0
5.6 0.6 0
6 0.6 0
6.4 0.6 0
6.8 0.6 0
7.2 0.6 0
7.6 0.6 0
8 0.6 0
8.4 0.6 0
8.8 0.6 0
9.2 0.6 0
9.6 0.6 0
10 0.6 0
10.4 0.6 0
10.8 0.6 0
11.2 0.6 0
11.6 0.6 0
12 0.6 0
12.4 0.6 0
12.8 0.6 0
13.2 0.6 0
13.6 0.6 0
14 0.6 0
14.4 0.6 0
14.8 0.6 0
15.2 0.6 0
15.6 0.6 0
16 0.6 0
16.4 0.6 0
16.8 0.6 0
17.2 0.6 0
17.6 0.6 0
18 0.6 0
18.4 0.6 0
18.8 0.6 0
19.2 0.6 0
19.6 0.6 0
20 0.6 0
20.4 0.6 0
20.8 0.6 0
21.2 0.6 0
21.6 0.6 0
22 0.6 0
22.4 0.6 0
22.8 0.6 0
23.2 0.6 0
23.6 0.6 0
24 0.6 0
24.4 0.6 0
24.8 0.6 0
25.2 0.6 0
25.6 0.6 0
26 0.6 0
26.4 0.6 0
26.8 0.6 0
27.2 0.6 0
27.6 0.6 0
28 0.6 0
28.4 0.6 0
28.8 0.6 0
29.2 0.6 0
29.6 0.6 0
30 0.6 0
30.4 0.6 0
30.8 0.6 0
31.2 0.6 0
31.6 0.6 0
32 0.6 0
32.4 0.6 0
32.8 0.6 0
33.2 0.6 0
33.6 0.6 0
34 0.6 0
34.4 0.6 0
34.8 0.6 0
35.2 0.6 0
35.6 0.6 0
36 0.6 0
36.4 0.6 0
36.8 0.6 0
37.2 0.6 0
37.6 0.6 0
38 0.6 0
38.4 0.6 0
38.8 0.6 0
39.2 0.6 0
39.6 0.6 0
40 0.6 0
40.4 0.6 0
0 0.7 0
0.4 0.7 0
0.8 0.7 0
1.2 0.7 0
1.6 0.7 0
2 0.7 0
2.4 0.7 0
2.8 0.7 0
3.2 0.7 0
3.6 0.7 0
4 0.7 0
4.4 0.7 0
4.8 0.7 0
5.2 0.7 0
5.6 0.7 0
6 0.7 0
6.4 0.7 0
6.8 0.7 0
7.2 0.7 0
7.6 0.7 0
8 0.7 0
8.4 0.7 0
8.8 0.7 0
9.2 0.7 0
9.6 0.7 0
10 0.7 0
10.4 0.7 0
10.8 0.7 0
11.2 0.7 0
11.6 0.7 0
12 0.7 0
12.4 0.7 0
12.8 0.7 0
13.2 0.7 0
13.6 0.7 0
14 0.7 0
14.4 0.7 0
14.8 0.7 0
15.2 0.7 0
15.6 0.7 0
16 0.7 0
16.4 0.7 0
16.8 0.7 0
17.2 0.7 0
17.6 0.7 0
18 0.7 0
18.4 0.7 0
18.8 0.7 0
19.2 0.7 0
19.6 0.7 0
20 0.7 0
20.4 0.7 0
20.8 0.7 0
21.2 0.7 0
21.6 0.7 0
22 0.7 0
22.4 0.7 0
22.8 0.7 0
23.2 0.7 0
23.6 0.7 0
24 0.7 0
24.4 0.7 0
24.8 0.7 0
25.2 0.7 0
25.6 0.7 0
26 0.7 0
26.4 0.7 0
26.8 0.7 0
27.2 0.7 0
27.6 0.7 0
28 0.7 0
28.4 0.7 0
28.8 0.7 0
29.2 0.7 0
29.6 0.7 0
30 0.7 0
30.4 0.7 0
30.8 0.7 0
31.2 0.7 0
31.6 0.7 0
32 0.7 0
32.4 0.7 0
32.8 0.7 0
33.2 0.7 0
33.6 0.7 0
34 0.7 0
34.4 0.7 0
34.8 0.7 0
35.2 0.7 0
35.6 0.7 0
36 0.7 0
36.4 0.7 0
36.8 0.7 0
37.2 0.7 0
37.6 0.7 0
38 0.7 0
38.4 0.7 0
38.8 0.7 0
39.2 0.7 0
39.6 0.7 0
40 0.7 0
40.4 0.7 0
0 0.8 0
0.4 0.8 0
0.8 0.8 0
1.2 0.8 0
1.6 0.8 0
2 0.8 0
2.4 0.8 0
2.8 0.8 0
3.2 0.8 0
3.6 0.8 0
4 0.8 0
4.4 0.8 0
4.8 0.8 0
5.2 0.8 0
5.6 0.8 0
6 0.8 0
6.4 0.8 0
6.8 0.8 0
7.2 0.8 0
7.6 0.8 0
8 0.8 0
8.4 0.8 0
8.8 0.8 0
9.2 0.8 0
9.6 0.8 0
10 0.8 0
10.4 0.8 0
10.8 0.8 0
11.2 0.8 0
11.6 0.8 0
12 0.8 0
12.4 0.8 0
12.8 0.8 0
13.2 0.8 0
13.6 0.8 0
14 0.8 0
14.4 0.8 0
14.8 0.8 0
15.2 0.8 0
15.6 0.8 0
16 0.8 0
16.4 0.8 0
16.8 0.8 0
17.2 0.8 0
17.6 0.8 0
18 0.8 0
18.4 0.8 0
18.8 0.8 0
19.2 0.8 0
19.6 0.8 0
20 0.8 0
20.4 0.8 0
20.8 0.8 0
21.2 0.8 0
21.6 0.8 0
22 0.8 0
22.4 0.8 0
22.8 0.8 0
23.2 0.8 0
23.6 0.8 0
24 0.8 0
24.4 0.8 0
24.8 0.8 0
25.2 0.8 0
25.6 0.8 0
26 0.8 0
26.4 0.8 0
26.8 0.8 0
27.2 0.8 0
27.6 0.8 0
28 0.8 0
28.4 0.8 0
28.8 0.8 0
29.2 0.8 0
29.6 0.8 0
30 0.8 0
30.4 0.8 0
30.8 0.8 0
31.2 0.8 0
31.6 0.8 0
32 0.8 0
32.4 0.8 0
32.8 0.8 0
33.2 0.8 0
33.6 0.8 0
34 0.8 0
34.4 0.8 0
34.8 0.8 0
35.2 0.8 0
35.6 0.8 0
36 0.8 0
36.4 0.8 0
36.8 0.8 0
37.2 0.8 0
37.6 0.8 0
38 0.8 0
38.4 0.8 0
38.8 0.8 0
39.2 0.8 0
39.6 0.8 0
40 0.8 0
40.4 0.8 0
0 0.9 0
0.4 0.9 0
0.8 0.9 0
1.2 0.9 0
1.6 0.9 0
2 0.9 0
2.4 0.9 0
2.8 0.9 0
3.2 0.9 0
3.6 0.9 0
4 0.9 0
4.4 0.9 0
4.8 0.9 0
5.2 0.9 0
5.6 0.9 0
6 0.9 0
6.4 0.9 0
6.8 0.9 0
7.2 0.9 0
7.6 0.9 0
8 0.9 0
8.4 0.9 0
8.8 0.9 0
9.2 0.9 0
9.6 0.9 0
10 0.9 0
10.4 0.9 0
10.8 0.9 0
11.2 0.9 0
11.6 0.9 0
12 0.9 0
12.4 0.9 0
12.8 0.9 0
13.2 0.9 0
13.6 0.9 0
14 0.9 0
14.4 0.9 0
14.8 0.9 0
15.2 0.9 0
15.6 0.9 0
16 0.9 0
16.4 0.9 0
16.8 0.9 0
17.2 0.9 0
17.6 0.9 0
18 0.9 0
18.4 0.9 0
18.8 0.9 0
19.2 0.9 0
19.6 0.9 0
20 0.9 0
20.4 0.9 0
20.8 0.9 0
21.2 0.9 0
21.6 0.9 0
22 0.9 0
22.4 0.9 0
22.8 0.9 0
23.2 0.9 0
23.6 0.9 0
24 0.9 0
24.4 0.9 0
24.8 0.9 0
25.2 0.9 0
25.6 0.9 0
26 0.9 0
26.4 0.9 0
26.8 0.9 0
27.2 0.9 0
27.6 0.9 0
28 0.9 0
28.4 0.9 0
28.8 0.9 0
29.2 0.9 0
29.6 0.9 0
30 0.9 0
30.4 0.9 0
30.8 0.9 0
31.2 0.9 0
31.6 0.9 0
32 0.9 0
32.4 0.9 0
32.8 0.9 0
33.2 0.9 0
33.6 0.9 0
34 0.9 0
34.4 0.9 0
34.8 0.9 0
35.2 0.9 0
35.6 0.9 0
36 0.9 0
36.4 0.9 0
36.8 0.9 0
37.2 0.9 0
37.6 0.9 0
38 0.9 0
38.4 0.9 0
38.8 0.9 0
39.2 0.9 0
39.6 0.9 0
40 0.9 0
40.4 0.9 0
0 1 0
0.4 1 0
0.8 1 0
1.2 1 0
1.6 1 0
2 1 0
2.4 1 0
2.8 1 0
3.2 1 0
3.6 1 0
4 1 0
4.4 1 0
4.8 1 0
5.2 1 0
5.6 1 0
6 1 0
6.4 1 0
6.8 1 0
7.2 1 0
7.6 1 0
8 1 0
8.4 1 0
8.8 1 0
9.2 1 0
9.6 1 0
10 1 0
10.4 1 0
10.8 1 0
11.2 1 0
11.6 1 0
12 1 0
12.4 1 0
12.8 1 0
13.2 1 0
13.6 1 0
14 1 0
14.4 1 0
14.8 1 0
15.2 1 0
15.6 1 0
16 1 0
16.4 1 0
16.8 1 0
17.2 1 0
17.6 1 0
18 1 0
18.4 1 0
18.8 1 0
19.2 1 0
19.6 1 0
20 1 0
20.4 1 0
20.8 1 0
21.2 1 0
21.6 1 0
22 1 0
22.4 1 0
22.8 1 0
23.2 1 0
23.6 1 0
24 1 0
24.4 1 0
24.8 1 0
25.2 1 0
25.6 1 0
26 1 0
26.4 1 0
26.8 1 0
27.2 1 0
27.6 1 0
28 1 0
28.4 1 0
28.8 1 0
29.2 1 0
29.6 1 0
30 1 0
30.4 1 0
30.8 1 0
31.2 1 0
31.6 1 0
32 1 0
32.4 1 0
32.8 1 0
33.2 1 0
33.6 1 0
34 1 0
34.4 1 0
34.8 1 0
35.2 1 0
35.6 1 0
36 1 0
36.4 1 0
36.8 1 0
37.2 1 0
37.6 1 0
38 1 0
38.4 1 0
38.8 1 0
39.2 1 0
39.6 1 0
40 1 0
40.4 1 0
0 1.1 0
0.4 1.1 0
0.8 1.1 0
1.2 1.1 0
1.6 1.1 0
2 1.1 0
2.4 1.1 0
2.8 1.1 0
3.2 1.1 0
3.6 1.1 0
4 1.1 0
4.4 1.1 0
4.8 1.1 0
5.2 1.1 0
5.6 1.1 0
6 1.1 0
6.4 1.1 0
6.8 1.1 0
7.2 1.1 0
7.6 1.1 0
8 1.1 0
8.4 1.1 0
8.8 1.1 0
9.2 1.1 0
9.6 1.1 0
10 1.1 0
10.4 1.1 0
10.8 1.1 0
11.2 1.1 0
11.6 1.1 0
12 1.1 0
12.4 1.1 0
12.8 1.1 0
13.2 1.1 0
13.6 1.1 0
14 1.1 0
14.4 1.1 0
14.8 1.1 0
15.2 1.1 0
15.6 1.1 0
16 1.1 0
16.4 1.1 0
16.8 1.1 0
17.2 1.1 0
17.6 1.1 0
18 1.1 0
18.4 1.1 0
18.8 1.1 0
19.2 1.1 0
19.6 1.1 0
20 1.1 0
20.4 1.1 0
20.8 1.1 0
21.2 1.1 0
21.6 1.1 0
22 1.1 0
22.4 1.1 0
22.8 1.1 0
23.2 1.1 0
23.6 1.1 0
24 1.1 0
24.4 1.1 0
24.8 1.1 0
25.2 1.1 0
25.6 1.1 0
26 1.1 0
26.4 1.1 0
26.8 1.1 0
27.2 1.1 0
27.6 1.1 0
28 1.1 0
28.4 1.1 0
28.8 1.1 0
29.2 1.1 0
29.6 1.1 0
30 1.1 0
30.4 1.1 0
30.8 1.1 0
31.2 1.1 0
31.6 1.1 0
32 1.1 0
32.4 1.1 0
32.8 1.1 0
33.2 1.1 0
33.6 1.1 0
34 1.1 0
34.4 1.1 0
34.8 1.1 0
35.2 1.1 0
35.6 1.1 0
36 1.1 0
36.4 1.1 0
36.8 1.1 0
37.2 1.1 0
37.6 1.1 0
38 1.1 0
38.4 1.1 0
38.8 1.1 0
39.2 1.1 0
39.6 1.1 0
40 1.1 0
40.4 1.1 0

POINT_DATA 1224

SCALARS v double
LOOKUP_TABLE default
0
0
0
0
0
0
0
0
0
0
0
0
0
0
0
0
0
0
0
0
0
0
0
0
0
0
0
0
0
0
0
0
0
0
0
0
0
0
0
0
0
0
0
0
0
0
0
0
0
0
0
0
0
0
0
0
0
0
0
0
0
0
0
0
0
0
0
0
0
0
0
0
0
0
0
0
0
0
0
0
0
0
0
0
0
0
0
0
0
0
0
0
0
0
0
0
0
0
0
0
0
0
-0.00751344
0.00751344
0.0146552
0.0162813
0.0149618
0.0125487
0.0100747
0.00795881
0.00628244
0.00499023
0.00399569
0.00322207
0.00261166
0.00212355
0.00172908
0.0014078
0.00114467
0.00092833
0.000749854
0.000602105
0.000479275
0.000376639
0.000290416
0.000217676
0.000156245
0.000104557
6.14142e-05
2.55171e-05
-3.50501e-06
-2.47166e-05
-3.88056e-05
-4.67062e-05
-4.95262e-05
-4.84748e-05
-4.47459e-05
-3.9416e-05
-3.33765e-05
-2.73014e-05
-2.1649e-05
-1.66864e-05
-1.25279e-05
-9.17791e-06
-6.5703e-06
-4.60193e-06
-3.15696e-06
-2.12308e-06
-1.4008e-06
-9.07397e-07
-5.77423e-07
-3.6118e-07
-2.22216e-07
-1.34604e-07
-8.04055e-08
-4.75159e-08
-2.79582e-08
-1.65893e-08
-1.01629e-08
-6.67158e-09
-4.89895e-09
-4.12312e-09
-3.92342e-09
-4.05678e-09
-4.38395e-09
-4.82612e-09
-5.33907e-09
-5.89793e-09
-6.48839e-09
-7.10167e-09
-7.7319e-09
-8.37473e-09
-9.0267e-09
-9.68489e-09
-1.03468e-08
-1.10101e-08
-1.16727e-08
-1.23328e-08
-1.29882e-08
-1.36375e-08
-1.42789e-08
-1.49111e-08
-1.55329e-08
-1.61427e-08
-1.67418e-08
-1.7323e-08
-1.79207e-08
-1.84386e-08
-1.94116e-08
-1.94607e-08
-2.62664e-08
-2.0935e-08
-1.09637e-07
-4.29687e-08
-1.25737e-06
-5.42008e-07
-1.71499e-05
-1.03452e-05
-0.000239147
-0.000166062
-0.00348061
-0.00148683
-0.0476622
-0.0476615
-0.00621568
0.00621568
0.0142999
0.0183624
0.0194157
0.0185586
0.0167091
0.0144992
0.0122985
0.0102886
0.00853606
0.00704676
0.00579866
0.00476024
0.00389928
0.00318657
0.00259696
0.00210933
0.00170598
0.00137209
0.00109518
0.000864757
0.000672144
0.000510336
0.000373937
0.000258944
0.00016247
8.24261e-05
1.67345e-05
-3.46231e-05
-7.13962e-05
-9.45555e-05
-0.000105886
-0.000107666
-0.000102369
-9.23963e-05
-7.98723e-05
-6.6512e-05
-5.35702e-05
-4.18575e-05
-3.18032e-05
-2.35418e-05
-1.70045e-05
-1.2001e-05
-8.2849e-06
-5.60002e-06
-3.70916e-06
-2.40903e-06
-1.53512e-06
-9.60289e-07
-5.90003e-07
-3.56292e-07
-2.11723e-07
-1.24086e-07
-7.20492e-08
-4.18214e-08
-2.46855e-08
-1.52547e-08
-1.02743e-08
-7.82289e-09
-6.79292e-09
-6.55786e-09
-6.76833e-09
-7.2319e-09
-7.84395e-09
-8.5482e-09
-9.3143e-09
-1.01252e-08
-1.09701e-08
-1.18415e-08
-1.27331e-08
-1.36395e-08
-1.45557e-08
-1.54774e-08
-1.64005e-08
-1.7321e-08
-1.8235e-08
-1.91392e-08
-2.003e-08
-2.09046e-08
-2.17609e-08
-2.25963e-08
-2.3413e-08
-2.41984e-08
-2.50103e-08
-2.56628e-08
-2.70525e-08
-2.64501e-08
-3.68201e-08
-2.00464e-08
-1.56598e-07
6.97427e-08
-1.80682e-06
1.11251e-06
-2.47182e-05
1.27791e-05
-0.000344642
0.000138359
-0.00479365
0.000869622
-0.0610082
-0.0610069
-0.00401801
0.00401801
0.00987185
0.0135457
0.0153924
0.0158461
0.015338
0.0142366
0.0128244
0.0112996
0.00979086
0.00837402
0.00708839
0.00594915
0.00495671
0.00410306
0.00337589
0.0027612
0.00224473
0.00181273
0.00145235
0.00115193
0.000901087
0.000690942
0.00051422
0.000365291
0.000239936
0.00013528
4.92152e-05
-1.99525e-05
-7.2189e-05
-0.000107977
-0.000128693
-0.0001365
-0.000134082
-0.000124316
-0.000109962
-9.34171e-05
-7.65715e-05
-6.07591e-05
-4.67916e-05
-3.50447e-05
-2.5568e-05
-1.81965e-05
-1.26474e-05
-8.593e-06
-5.71157e-06
-3.71614e-06
-2.3678e-06
-1.47789e-06
-9.03786e-07
-5.41639e-07
-3.18256e-07
-1.83576e-07
-1.04288e-07
-5.87942e-08
-3.34374e-08
-1.97923e-08
-1.27918e-08
-9.46795e-09
-8.13285e-09
-7.85373e-09
-8.12837e-09
-8.69204e-09
-9.40812e-09
-1.0208e-08
-1.10586e-08
-1.1944e-08
-1.28565e-08
-1.37911e-08
-1.47434e-08
-1.57094e-08
-1.66846e-08
-1.76651e-08
-1.86467e-08
-1.96253e-08
-2.05965e-08
-2.15557e-08
-2.24984e-08
-2.34203e-08
-2.43177e-08
-2.51875e-08
-2.60302e-08
-2.6835e-08
-2.7653e-08
-2.83004e-08
-2.96605e-08
-2.87216e-08
-3.92396e-08
-1.5697e-08
-1.60624e-07
1.81196e-07
-1.86189e-06
2.79381e-06
-2.53087e-05
3.51562e-05
-0.000339481
0.000385554
-0.00434575
0.00277469
-0.0513243
-0.0513228
-0.00195406
0.00195406
0.00490746
0.00691944
0.00813033
0.0086901
0.00874625
0.00843555
0.00787798
0.00717312
0.00639892
0.00561274
0.00485394
0.0041473
0.00350645
0.002937
0.00243911
0.00200947
0.00164265
0.00133217
0.00107104
0.000852309
0.000669336
0.000516099
0.000387409
0.000279057
0.000187811
0.00011133
4.81559e-05
-2.95414e-06
-4.2491e-05
-7.07654e-05
-8.84762e-05
-9.68196e-05
-9.74204e-05
-9.21587e-05
-8.29551e-05
-7.15754e-05
-5.94888e-05
-4.77959e-05
-3.72212e-05
-2.81544e-05
-2.07203e-05
-1.48576e-05
-1.03919e-05
-7.09645e-06
-4.73478e-06
-3.08813e-06
-1.96958e-06
-1.22855e-06
-7.49455e-07
-4.47114e-07
-2.60919e-07
-1.49119e-07
-8.37862e-08
-4.67513e-08
-2.65079e-08
-1.59587e-08
-1.0846e-08
-8.6892e-09
-8.09173e-09
-8.29436e-09
-8.89798e-09
-9.69757e-09
-1.05893e-08
-1.15214e-08
-1.24692e-08
-1.34218e-08
-1.43748e-08
-1.53266e-08
-1.62762e-08
-1.72225e-08
-1.81642e-08
-1.91e-08
-2.00282e-08
-2.09471e-08
-2.1854e-08
-2.27456e-08
-2.36177e-08
-2.44658e-08
-2.52858e-08
-2.60735e-08
-2.68286e-08
-2.75408e-08
-2.82512e-08
-2.88039e-08
-2.98927e-08
-2.90376e-08
-3.68307e-08
-1.65486e-08
-1.21803e-07
1.66511e-07
-1.28744e-06
2.52988e-06
-1.67865e-05
3.05217e-05
-0.000213719
0.000316788
-0.00256715
0.00230498
-0.0287952
-0.0287941
-2.59131e-09
2.58942e-09
7.31672e-09
1.1681e-08
1.57599e-08
1.95648e-08
2.31007e-08
2.64174e-08
2.9624e-08
3.28733e-08
3.63343e-08
4.01692e-08
4.45142e-08
4.94597e-08
5.50331e-08
6.12035e-08
6.79273e-08
7.5228e-08
8.32545e-08
9.22236e-08
1.02177e-07
1.12571e-07
1.21839e-07
1.27206e-07
1.24963e-07
1.11339e-07
8.36917e-08
4.15752e-08
-1.11407e-08
-6.82661e-08
-1.22199e-07
-1.64762e-07
-1.89629e-07
-1.93692e-07
-1.77566e-07
-1.45166e-07
-1.02575e-07
-5.66001e-08
-1.34156e-08
2.23974e-08
4.82852e-08
6.3663e-08
6.95046e-08
6.77642e-08
6.07957e-08
5.08849e-08
3.99435e-08
2.93674e-08
2.00247e-08
1.23286e-08
6.35015e-09
1.93835e-09
-1.17495e-09
-3.29508e-09
-4.71185e-09
-5.67067e-09
-6.36217e-09
-6.92212e-09
-7.44232e-09
-7.98258e-09
-8.58292e-09
-9.26317e-09
-1.00283e-08
-1.08705e-08
-1.1773e-08
-1.27148e-08
-1.36755e-08
-1.46386e-08
-1.5592e-08
-1.65279e-08
-1.74421e-08
-1.83326e-08
-1.91994e-08
-2.00433e-08
-2.08657e-08
-2.16675e-08
-2.24492e-08
-2.32097e-08
-2.39468e-08
-2.46573e-08
-2.53377e-08
-2.59841e-08
-2.65946e-08
-2.71652e-08
-2.77016e-08
-2.81846e-08
-2.86611e-08
-2.90103e-08
-2.94485e-08
-2.95296e-08
-2.97611e-08
-2.9549e-08
-2.94093e-08
-2.8745e-08
-2.78803e-08
-2.63077e-08
-2.3457e-08
-2.05459e-08
-1.01671e-08
-1.12513e-08
4.04299e-08
4.04435e-08
0.00195405
-0.00195405
-0.00490745
-0.00691942
-0.0081303
-0.00869006
-0.0087462
-0.0084355
-0.00787793
-0.00717306
-0.00639885
-0.00561266
-0.00485386
-0.00414721
-0.00350634
-0.00293688
-0.00243898
-0.00200932
-0.0016425
-0.00133199
-0.00107085
-0.000852099
-0.00066911
-0.000515866
-0.000387183
-0.00027886
-0.000187669
-0.000111269
-4.81928e-05
2.81223e-06
4.22534e-05
7.04559e-05
8.8129e-05
9.64729e-05
9.711e-05
9.19121e-05
8.27883e-05
7.1492e-05
5.94818e-05
4.78505e-05
3.73189e-05
2.82762e-05
2.08495e-05
1.49812e-05
1.05012e-05
7.18693e-06
4.8051e-06
3.13937e-06
2.00418e-06
1.24959e-06
7.60042e-07
4.50021e-07
2.58407e-07
1.42892e-07
7.50316e-08
3.62286e-08
1.46485e-08
2.96356e-09
-3.23342e-09
-6.52287e-09
-8.36939e-09
-9.55952e-09
-1.04974e-08
-1.1375e-08
-1.22684e-08
-1.31936e-08
-1.4139e-08
-1.5085e-08
-1.6013e-08
-1.691e-08
-1.77685e-08
-1.8586e-08
-1.93632e-08
-2.01032e-08
-2.08099e-08
-2.14867e-08
-2.21366e-08
-2.27607e-08
-2.33588e-08
-2.39291e-08
-2.44693e-08
-2.49769e-08
-2.54484e-08
-2.5889e-08
-2.62605e-08
-2.67059e-08
-2.65562e-08
-2.82259e-08
-2.11588e-08
-4.20003e-08
6.31753e-08
-2.25147e-07
1.22942e-06
-2.58701e-06
1.67314e-05
-3.05741e-05
0.000213672
-0.000316829
0.00256712
-0.002305
0.0287952
0.0287942
0.00401801
-0.00401801
-0.00987184
-0.0135457
-0.0153924
-0.0158461
-0.0153379
-0.0142365
-0.0128243
-0.0112996
-0.0097908
-0.00837396
-0.00708832
-0.00594907
-0.00495663
-0.00410296
-0.00337578
-0.00276109
-0.0022446
-0.00181258
-0.0014522
-0.00115176
-0.000900907
-0.000690762
-0.000514054
-0.000365158
-0.000239854
-0.000135265
-4.92784e-05
1.98128e-05
7.19867e-05
0.000107735
0.000128439
0.000136263
0.000133884
0.000124173
0.00010988
9.33951e-05
7.66003e-05
6.08258e-05
4.68822e-05
3.51457e-05
2.56684e-05
1.82886e-05
1.27263e-05
8.65672e-06
5.76016e-06
3.75102e-06
2.39109e-06
1.49191e-06
9.10754e-07
5.43417e-07
3.16308e-07
1.78964e-07
9.77226e-08
5.07064e-08
2.40529e-08
9.1978e-09
9.9211e-10
-3.59283e-09
-6.27341e-09
-7.99527e-09
-9.26295e-09
-1.03383e-08
-1.13438e-08
-1.23232e-08
-1.32815e-08
-1.42093e-08
-1.50953e-08
-1.59321e-08
-1.67171e-08
-1.74517e-08
-1.814e-08
-1.87873e-08
-1.93994e-08
-1.99809e-08
-2.05356e-08
-2.10655e-08
-2.1571e-08
-2.20515e-08
-2.25055e-08
-2.29318e-08
-2.33257e-08
-2.36977e-08
-2.39881e-08
-2.44009e-08
-2.39885e-08
-2.59246e-08
-1.60211e-08
-4.06266e-08
1.04523e-07
-2.3788e-07
1.80605e-06
-2.84933e-06
2.52553e-05
-3.52073e-05
0.000339435
-0.000385593
0.00434573
-0.0027747
0.0513244
0.0513228
0.00621567
-0.00621567
-0.0142999
-0.0183624
-0.0194157
-0.0185586
-0.016709
-0.0144991
-0.0122985
-0.0102885
-0.00853601
-0.0070467
-0.0057986
-0.00476018
-0.00389921
-0.00318649
-0.00259688
-0.00210924
-0.00170588
-0.00137198
-0.00109506
-0.00086464
-0.000672027
-0.000510226
-0.000373843
-0.000258878
-0.000162441
-8.24416e-05
-1.67964e-05
3.45231e-05
7.12709e-05
9.44207e-05
0.000105758
0.000107558
0.000102291
9.23527e-05
7.9863e-05
6.65327e-05
5.3614e-05
4.19164e-05
3.18694e-05
2.36087e-05
1.70671e-05
1.20561e-05
8.33096e-06
5.63677e-06
3.7372e-06
2.42947e-06
1.54927e-06
9.69439e-07
5.95279e-07
3.58601e-07
2.11743e-07
1.22284e-07
6.87202e-08
3.71303e-08
1.87068e-08
8.00357e-09
1.74398e-09
-2.02251e-09
-4.38916e-09
-6.01697e-09
-7.26927e-09
-8.33725e-09
-9.31191e-09
-1.02289e-08
-1.10978e-08
-1.1919e-08
-1.26916e-08
-1.34164e-08
-1.40966e-08
-1.47367e-08
-1.53418e-08
-1.59173e-08
-1.64677e-08
-1.69967e-08
-1.75065e-08
-1.79984e-08
-1.84726e-08
-1.89286e-08
-1.93649e-08
-1.97814e-08
-2.01721e-08
-2.05508e-08
-2.08473e-08
-2.12761e-08
-2.08568e-08
-2.25333e-08
-1.29175e-08
-3.0754e-08
1.05071e-07
-1.21325e-07
1.75511e-06
-1.16336e-06
2.46684e-05
-1.28264e-05
0.000344598
-0.000138396
0.00479362
-0.000869626
0.0610082
0.0610069
0.00751343
-0.00751343
-0.0146552
-0.0162812
-0.0149618
-0.0125487
-0.0100746
-0.00795878
-0.00628241
-0.0049902
-0.00399566
-0.00322204
-0.00261162
-0.00212352
-0.00172904
-0.00140775
-0.00114463
-0.00092828
-0.000749801
-0.000602048
-0.000479216
-0.00037658
-0.000290359
-0.000217626
-0.000156205
-0.000104531
-6.1405e-05
-2.55267e-05
3.47995e-06
2.46811e-05
3.87652e-05
4.66671e-05
4.94938e-05
4.8453e-05
4.47368e-05
3.942e-05
3.33921e-05
2.73262e-05
2.16799e-05
1.67205e-05
1.25625e-05
9.21086e-06
6.60021e-06
4.628e-06
3.17894e-06
2.1411e-06
1.41521e-06
9.18671e-07
5.86055e-07
3.67617e-07
2.26832e-07
1.37686e-07
8.21581e-08
4.80736e-08
2.74005e-08
1.49567e-08
7.47028e-09
2.91939e-09
7.93326e-11
-1.71914e-09
-2.97529e-09
-3.95201e-09
-4.77555e-09
-5.51062e-09
-6.19109e-09
-6.83297e-09
-7.44315e-09
-8.02489e-09
-8.58062e-09
-9.11289e-09
-9.62451e-09
-1.01184e-08
-1.05973e-08
-1.10636e-08
-1.15191e-08
-1.19652e-08
-1.24024e-08
-1.2831e-08
-1.32504e-08
-1.36601e-08
-1.40591e-08
-1.44466e-08
-1.48191e-08
-1.5183e-08
-1.5496e-08
-1.58716e-08
-1.5723e-08
-1.65903e-08
-1.05187e-08
-1.68814e-08
7.10203e-08
4.42631e-09
1.21853e-06
5.03628e-07
1.71119e-05
1.03086e-05
0.000239112
0.000166032
0.00348058
0.00148681
0.0476622
0.0476615
0
0
0
0
0
0
0
0
0
0
0
0
0
0
0
0
0
0
0
0
0
0
0
0
0
0
0
0
0
0
0
0
0
0
0
0
0
0
0
0
0
0
0
0
0
0
0
0
0
0
0
0
0
0
0
0
0
0
0
0
0
0
0
0
0
0
0
0
0
0
0
0
0
0
0
0
0
0
0
0
0
0
0
0
0
0
0
0
0
0
0
0
0
0
0
0
0
0
0
0
0
0
0
0
0
0
0
0
0
0
0
0
0
0
0
0
0
0
0
0
0
0
0
0
0
0
0
0
0
0
0
0
0
0
0
0
0
0
0
0
0
0
0
0
0
0
0
0
0
0
0
0
0
0
0
0
0
0
0
0
0
0
0
0
0
0
0
0
0
0
0
0
0
0
0
0
0
0
0
0
0
0
0
0
0
0
0
0
0
0
0
0
0
0
0
0
0
0
0
0
0
0
0
0
