# vtk DataFile Version 2.0
FlowField
ASCII
DATASET STRUCTURED_GRID
DIMENSIONS 102 13 1 
POINTS 1326 double
0 0 0
0.3 0 0
0.6 0 0
0.9 0 0
1.2 0 0
1.5 0 0
1.8 0 0
2.1 0 0
2.4 0 0
2.7 0 0
3 0 0
3.3 0 0
3.6 0 0
3.9 0 0
4.2 0 0
4.5 0 0
4.8 0 0
5.1 0 0
5.4 0 0
5.7 0 0
6 0 0
6.3 0 0
6.6 0 0
6.9 0 0
7.2 0 0
7.5 0 0
7.8 0 0
8.1 0 0
8.4 0 0
8.7 0 0
9 0 0
9.3 0 0
9.6 0 0
9.9 0 0
10.2 0 0
10.5 0 0
10.8 0 0
11.1 0 0
11.4 0 0
11.7 0 0
12 0 0
12.3 0 0
12.6 0 0
12.9 0 0
13.2 0 0
13.5 0 0
13.8 0 0
14.1 0 0
14.4 0 0
14.7 0 0
15 0 0
15.3 0 0
15.6 0 0
15.9 0 0
16.2 0 0
16.5 0 0
16.8 0 0
17.1 0 0
17.4 0 0
17.7 0 0
18 0 0
18.3 0 0
18.6 0 0
18.9 0 0
19.2 0 0
19.5 0 0
19.8 0 0
20.1 0 0
20.4 0 0
20.7 0 0
21 0 0
21.3 0 0
21.6 0 0
21.9 0 0
22.2 0 0
22.5 0 0
22.8 0 0
23.1 0 0
23.4 0 0
23.7 0 0
24 0 0
24.3 0 0
24.6 0 0
24.9 0 0
25.2 0 0
25.5 0 0
25.8 0 0
26.1 0 0
26.4 0 0
26.7 0 0
27 0 0
27.3 0 0
27.6 0 0
27.9 0 0
28.2 0 0
28.5 0 0
28.8 0 0
29.1 0 0
29.4 0 0
29.7 0 0
30 0 0
30.3 0 0
0 0.1 0
0.3 0.1 0
0.6 0.1 0
0.9 0.1 0
1.2 0.1 0
1.5 0.1 0
1.8 0.1 0
2.1 0.1 0
2.4 0.1 0
2.7 0.1 0
3 0.1 0
3.3 0.1 0
3.6 0.1 0
3.9 0.1 0
4.2 0.1 0
4.5 0.1 0
4.8 0.1 0
5.1 0.1 0
5.4 0.1 0
5.7 0.1 0
6 0.1 0
6.3 0.1 0
6.6 0.1 0
6.9 0.1 0
7.2 0.1 0
7.5 0.1 0
7.8 0.1 0
8.1 0.1 0
8.4 0.1 0
8.7 0.1 0
9 0.1 0
9.3 0.1 0
9.6 0.1 0
9.9 0.1 0
10.2 0.1 0
10.5 0.1 0
10.8 0.1 0
11.1 0.1 0
11.4 0.1 0
11.7 0.1 0
12 0.1 0
12.3 0.1 0
12.6 0.1 0
12.9 0.1 0
13.2 0.1 0
13.5 0.1 0
13.8 0.1 0
14.1 0.1 0
14.4 0.1 0
14.7 0.1 0
15 0.1 0
15.3 0.1 0
15.6 0.1 0
15.9 0.1 0
16.2 0.1 0
16.5 0.1 0
16.8 0.1 0
17.1 0.1 0
17.4 0.1 0
17.7 0.1 0
18 0.1 0
18.3 0.1 0
18.6 0.1 0
18.9 0.1 0
19.2 0.1 0
19.5 0.1 0
19.8 0.1 0
20.1 0.1 0
20.4 0.1 0
20.7 0.1 0
21 0.1 0
21.3 0.1 0
21.6 0.1 0
21.9 0.1 0
22.2 0.1 0
22.5 0.1 0
22.8 0.1 0
23.1 0.1 0
23.4 0.1 0
23.7 0.1 0
24 0.1 0
24.3 0.1 0
24.6 0.1 0
24.9 0.1 0
25.2 0.1 0
25.5 0.1 0
25.8 0.1 0
26.1 0.1 0
26.4 0.1 0
26.7 0.1 0
27 0.1 0
27.3 0.1 0
27.6 0.1 0
27.9 0.1 0
28.2 0.1 0
28.5 0.1 0
28.8 0.1 0
29.1 0.1 0
29.4 0.1 0
29.7 0.1 0
30 0.1 0
30.3 0.1 0
0 0.2 0
0.3 0.2 0
0.6 0.2 0
0.9 0.2 0
1.2 0.2 0
1.5 0.2 0
1.8 0.2 0
2.1 0.2 0
2.4 0.2 0
2.7 0.2 0
3 0.2 0
3.3 0.2 0
3.6 0.2 0
3.9 0.2 0
4.2 0.2 0
4.5 0.2 0
4.8 0.2 0
5.1 0.2 0
5.4 0.2 0
5.7 0.2 0
6 0.2 0
6.3 0.2 0
6.6 0.2 0
6.9 0.2 0
7.2 0.2 0
7.5 0.2 0
7.8 0.2 0
8.1 0.2 0
8.4 0.2 0
8.7 0.2 0
9 0.2 0
9.3 0.2 0
9.6 0.2 0
9.9 0.2 0
10.2 0.2 0
10.5 0.2 0
10.8 0.2 0
11.1 0.2 0
11.4 0.2 0
11.7 0.2 0
12 0.2 0
12.3 0.2 0
12.6 0.2 0
12.9 0.2 0
13.2 0.2 0
13.5 0.2 0
13.8 0.2 0
14.1 0.2 0
14.4 0.2 0
14.7 0.2 0
15 0.2 0
15.3 0.2 0
15.6 0.2 0
15.9 0.2 0
16.2 0.2 0
16.5 0.2 0
16.8 0.2 0
17.1 0.2 0
17.4 0.2 0
17.7 0.2 0
18 0.2 0
18.3 0.2 0
18.6 0.2 0
18.9 0.2 0
19.2 0.2 0
19.5 0.2 0
19.8 0.2 0
20.1 0.2 0
20.4 0.2 0
20.7 0.2 0
21 0.2 0
21.3 0.2 0
21.6 0.2 0
21.9 0.2 0
22.2 0.2 0
22.5 0.2 0
22.8 0.2 0
23.1 0.2 0
23.4 0.2 0
23.7 0.2 0
24 0.2 0
24.3 0.2 0
24.6 0.2 0
24.9 0.2 0
25.2 0.2 0
25.5 0.2 0
25.8 0.2 0
26.1 0.2 0
26.4 0.2 0
26.7 0.2 0
27 0.2 0
27.3 0.2 0
27.6 0.2 0
27.9 0.2 0
28.2 0.2 0
28.5 0.2 0
28.8 0.2 0
29.1 0.2 0
29.4 0.2 0
29.7 0.2 0
30 0.2 0
30.3 0.2 0
0 0.3 0
0.3 0.3 0
0.6 0.3 0
0.9 0.3 0
1.2 0.3 0
1.5 0.3 0
1.8 0.3 0
2.1 0.3 0
2.4 0.3 0
2.7 0.3 0
3 0.3 0
3.3 0.3 0
3.6 0.3 0
3.9 0.3 0
4.2 0.3 0
4.5 0.3 0
4.8 0.3 0
5.1 0.3 0
5.4 0.3 0
5.7 0.3 0
6 0.3 0
6.3 0.3 0
6.6 0.3 0
6.9 0.3 0
7.2 0.3 0
7.5 0.3 0
7.8 0.3 0
8.1 0.3 0
8.4 0.3 0
8.7 0.3 0
9 0.3 0
9.3 0.3 0
9.6 0.3 0
9.9 0.3 0
10.2 0.3 0
10.5 0.3 0
10.8 0.3 0
11.1 0.3 0
11.4 0.3 0
11.7 0.3 0
12 0.3 0
12.3 0.3 0
12.6 0.3 0
12.9 0.3 0
13.2 0.3 0
13.5 0.3 0
13.8 0.3 0
14.1 0.3 0
14.4 0.3 0
14.7 0.3 0
15 0.3 0
15.3 0.3 0
15.6 0.3 0
15.9 0.3 0
16.2 0.3 0
16.5 0.3 0
16.8 0.3 0
17.1 0.3 0
17.4 0.3 0
17.7 0.3 0
18 0.3 0
18.3 0.3 0
18.6 0.3 0
18.9 0.3 0
19.2 0.3 0
19.5 0.3 0
19.8 0.3 0
20.1 0.3 0
20.4 0.3 0
20.7 0.3 0
21 0.3 0
21.3 0.3 0
21.6 0.3 0
21.9 0.3 0
22.2 0.3 0
22.5 0.3 0
22.8 0.3 0
23.1 0.3 0
23.4 0.3 0
23.7 0.3 0
24 0.3 0
24.3 0.3 0
24.6 0.3 0
24.9 0.3 0
25.2 0.3 0
25.5 0.3 0
25.8 0.3 0
26.1 0.3 0
26.4 0.3 0
26.7 0.3 0
27 0.3 0
27.3 0.3 0
27.6 0.3 0
27.9 0.3 0
28.2 0.3 0
28.5 0.3 0
28.8 0.3 0
29.1 0.3 0
29.4 0.3 0
29.7 0.3 0
30 0.3 0
30.3 0.3 0
0 0.4 0
0.3 0.4 0
0.6 0.4 0
0.9 0.4 0
1.2 0.4 0
1.5 0.4 0
1.8 0.4 0
2.1 0.4 0
2.4 0.4 0
2.7 0.4 0
3 0.4 0
3.3 0.4 0
3.6 0.4 0
3.9 0.4 0
4.2 0.4 0
4.5 0.4 0
4.8 0.4 0
5.1 0.4 0
5.4 0.4 0
5.7 0.4 0
6 0.4 0
6.3 0.4 0
6.6 0.4 0
6.9 0.4 0
7.2 0.4 0
7.5 0.4 0
7.8 0.4 0
8.1 0.4 0
8.4 0.4 0
8.7 0.4 0
9 0.4 0
9.3 0.4 0
9.6 0.4 0
9.9 0.4 0
10.2 0.4 0
10.5 0.4 0
10.8 0.4 0
11.1 0.4 0
11.4 0.4 0
11.7 0.4 0
12 0.4 0
12.3 0.4 0
12.6 0.4 0
12.9 0.4 0
13.2 0.4 0
13.5 0.4 0
13.8 0.4 0
14.1 0.4 0
14.4 0.4 0
14.7 0.4 0
15 0.4 0
15.3 0.4 0
15.6 0.4 0
15.9 0.4 0
16.2 0.4 0
16.5 0.4 0
16.8 0.4 0
17.1 0.4 0
17.4 0.4 0
17.7 0.4 0
18 0.4 0
18.3 0.4 0
18.6 0.4 0
18.9 0.4 0
19.2 0.4 0
19.5 0.4 0
19.8 0.4 0
20.1 0.4 0
20.4 0.4 0
20.7 0.4 0
21 0.4 0
21.3 0.4 0
21.6 0.4 0
21.9 0.4 0
22.2 0.4 0
22.5 0.4 0
22.8 0.4 0
23.1 0.4 0
23.4 0.4 0
23.7 0.4 0
24 0.4 0
24.3 0.4 0
24.6 0.4 0
24.9 0.4 0
25.2 0.4 0
25.5 0.4 0
25.8 0.4 0
26.1 0.4 0
26.4 0.4 0
26.7 0.4 0
27 0.4 0
27.3 0.4 0
27.6 0.4 0
27.9 0.4 0
28.2 0.4 0
28.5 0.4 0
28.8 0.4 0
29.1 0.4 0
29.4 0.4 0
29.7 0.4 0
30 0.4 0
30.3 0.4 0
0 0.5 0
0.3 0.5 0
0.6 0.5 0
0.9 0.5 0
1.2 0.5 0
1.5 0.5 0
1.8 0.5 0
2.1 0.5 0
2.4 0.5 0
2.7 0.5 0
3 0.5 0
3.3 0.5 0
3.6 0.5 0
3.9 0.5 0
4.2 0.5 0
4.5 0.5 0
4.8 0.5 0
5.1 0.5 0
5.4 0.5 0
5.7 0.5 0
6 0.5 0
6.3 0.5 0
6.6 0.5 0
6.9 0.5 0
7.2 0.5 0
7.5 0.5 0
7.8 0.5 0
8.1 0.5 0
8.4 0.5 0
8.7 0.5 0
9 0.5 0
9.3 0.5 0
9.6 0.5 0
9.9 0.5 0
10.2 0.5 0
10.5 0.5 0
10.8 0.5 0
11.1 0.5 0
11.4 0.5 0
11.7 0.5 0
12 0.5 0
12.3 0.5 0
12.6 0.5 0
12.9 0.5 0
13.2 0.5 0
13.5 0.5 0
13.8 0.5 0
14.1 0.5 0
14.4 0.5 0
14.7 0.5 0
15 0.5 0
15.3 0.5 0
15.6 0.5 0
15.9 0.5 0
16.2 0.5 0
16.5 0.5 0
16.8 0.5 0
17.1 0.5 0
17.4 0.5 0
17.7 0.5 0
18 0.5 0
18.3 0.5 0
18.6 0.5 0
18.9 0.5 0
19.2 0.5 0
19.5 0.5 0
19.8 0.5 0
20.1 0.5 0
20.4 0.5 0
20.7 0.5 0
21 0.5 0
21.3 0.5 0
21.6 0.5 0
21.9 0.5 0
22.2 0.5 0
22.5 0.5 0
22.8 0.5 0
23.1 0.5 0
23.4 0.5 0
23.7 0.5 0
24 0.5 0
24.3 0.5 0
24.6 0.5 0
24.9 0.5 0
25.2 0.5 0
25.5 0.5 0
25.8 0.5 0
26.1 0.5 0
26.4 0.5 0
26.7 0.5 0
27 0.5 0
27.3 0.5 0
27.6 0.5 0
27.9 0.5 0
28.2 0.5 0
28.5 0.5 0
28.8 0.5 0
29.1 0.5 0
29.4 0.5 0
29.7 0.5 0
30 0.5 0
30.3 0.5 0
0 0.6 0
0.3 0.6 0
0.6 0.6 0
0.9 0.6 0
1.2 0.6 0
1.5 0.6 0
1.8 0.6 0
2.1 0.6 0
2.4 0.6 0
2.7 0.6 0
3 0.6 0
3.3 0.6 0
3.6 0.6 0
3.9 0.6 0
4.2 0.6 0
4.5 0.6 0
4.8 0.6 0
5.1 0.6 0
5.4 0.6 0
5.7 0.6 0
6 0.6 0
6.3 0.6 0
6.6 0.6 0
6.9 0.6 0
7.2 0.6 0
7.5 0.6 0
7.8 0.6 0
8.1 0.6 0
8.4 0.6 0
8.7 0.6 0
9 0.6 0
9.3 0.6 0
9.6 0.6 0
9.9 0.6 0
10.2 0.6 0
10.5 0.6 0
10.8 0.6 0
11.1 0.6 0
11.4 0.6 0
11.7 0.6 0
12 0.6 0
12.3 0.6 0
12.6 0.6 0
12.9 0.6 0
13.2 0.6 0
13.5 0.6 0
13.8 0.6 0
14.1 0.6 0
14.4 0.6 0
14.7 0.6 0
15 0.6 0
15.3 0.6 0
15.6 0.6 0
15.9 0.6 0
16.2 0.6 0
16.5 0.6 0
16.8 0.6 0
17.1 0.6 0
17.4 0.6 0
17.7 0.6 0
18 0.6 0
18.3 0.6 0
18.6 0.6 0
18.9 0.6 0
19.2 0.6 0
19.5 0.6 0
19.8 0.6 0
20.1 0.6 0
20.4 0.6 0
20.7 0.6 0
21 0.6 0
21.3 0.6 0
21.6 0.6 0
21.9 0.6 0
22.2 0.6 0
22.5 0.6 0
22.8 0.6 0
23.1 0.6 0
23.4 0.6 0
23.7 0.6 0
24 0.6 0
24.3 0.6 0
24.6 0.6 0
24.9 0.6 0
25.2 0.6 0
25.5 0.6 0
25.8 0.6 0
26.1 0.6 0
26.4 0.6 0
26.7 0.6 0
27 0.6 0
27.3 0.6 0
27.6 0.6 0
27.9 0.6 0
28.2 0.6 0
28.5 0.6 0
28.8 0.6 0
29.1 0.6 0
29.4 0.6 0
29.7 0.6 0
30 0.6 0
30.3 0.6 0
0 0.7 0
0.3 0.7 0
0.6 0.7 0
0.9 0.7 0
1.2 0.7 0
1.5 0.7 0
1.8 0.7 0
2.1 0.7 0
2.4 0.7 0
2.7 0.7 0
3 0.7 0
3.3 0.7 0
3.6 0.7 0
3.9 0.7 0
4.2 0.7 0
4.5 0.7 0
4.8 0.7 0
5.1 0.7 0
5.4 0.7 0
5.7 0.7 0
6 0.7 0
6.3 0.7 0
6.6 0.7 0
6.9 0.7 0
7.2 0.7 0
7.5 0.7 0
7.8 0.7 0
8.1 0.7 0
8.4 0.7 0
8.7 0.7 0
9 0.7 0
9.3 0.7 0
9.6 0.7 0
9.9 0.7 0
10.2 0.7 0
10.5 0.7 0
10.8 0.7 0
11.1 0.7 0
11.4 0.7 0
11.7 0.7 0
12 0.7 0
12.3 0.7 0
12.6 0.7 0
12.9 0.7 0
13.2 0.7 0
13.5 0.7 0
13.8 0.7 0
14.1 0.7 0
14.4 0.7 0
14.7 0.7 0
15 0.7 0
15.3 0.7 0
15.6 0.7 0
15.9 0.7 0
16.2 0.7 0
16.5 0.7 0
16.8 0.7 0
17.1 0.7 0
17.4 0.7 0
17.7 0.7 0
18 0.7 0
18.3 0.7 0
18.6 0.7 0
18.9 0.7 0
19.2 0.7 0
19.5 0.7 0
19.8 0.7 0
20.1 0.7 0
20.4 0.7 0
20.7 0.7 0
21 0.7 0
21.3 0.7 0
21.6 0.7 0
21.9 0.7 0
22.2 0.7 0
22.5 0.7 0
22.8 0.7 0
23.1 0.7 0
23.4 0.7 0
23.7 0.7 0
24 0.7 0
24.3 0.7 0
24.6 0.7 0
24.9 0.7 0
25.2 0.7 0
25.5 0.7 0
25.8 0.7 0
26.1 0.7 0
26.4 0.7 0
26.7 0.7 0
27 0.7 0
27.3 0.7 0
27.6 0.7 0
27.9 0.7 0
28.2 0.7 0
28.5 0.7 0
28.8 0.7 0
29.1 0.7 0
29.4 0.7 0
29.7 0.7 0
30 0.7 0
30.3 0.7 0
0 0.8 0
0.3 0.8 0
0.6 0.8 0
0.9 0.8 0
1.2 0.8 0
1.5 0.8 0
1.8 0.8 0
2.1 0.8 0
2.4 0.8 0
2.7 0.8 0
3 0.8 0
3.3 0.8 0
3.6 0.8 0
3.9 0.8 0
4.2 0.8 0
4.5 0.8 0
4.8 0.8 0
5.1 0.8 0
5.4 0.8 0
5.7 0.8 0
6 0.8 0
6.3 0.8 0
6.6 0.8 0
6.9 0.8 0
7.2 0.8 0
7.5 0.8 0
7.8 0.8 0
8.1 0.8 0
8.4 0.8 0
8.7 0.8 0
9 0.8 0
9.3 0.8 0
9.6 0.8 0
9.9 0.8 0
10.2 0.8 0
10.5 0.8 0
10.8 0.8 0
11.1 0.8 0
11.4 0.8 0
11.7 0.8 0
12 0.8 0
12.3 0.8 0
12.6 0.8 0
12.9 0.8 0
13.2 0.8 0
13.5 0.8 0
13.8 0.8 0
14.1 0.8 0
14.4 0.8 0
14.7 0.8 0
15 0.8 0
15.3 0.8 0
15.6 0.8 0
15.9 0.8 0
16.2 0.8 0
16.5 0.8 0
16.8 0.8 0
17.1 0.8 0
17.4 0.8 0
17.7 0.8 0
18 0.8 0
18.3 0.8 0
18.6 0.8 0
18.9 0.8 0
19.2 0.8 0
19.5 0.8 0
19.8 0.8 0
20.1 0.8 0
20.4 0.8 0
20.7 0.8 0
21 0.8 0
21.3 0.8 0
21.6 0.8 0
21.9 0.8 0
22.2 0.8 0
22.5 0.8 0
22.8 0.8 0
23.1 0.8 0
23.4 0.8 0
23.7 0.8 0
24 0.8 0
24.3 0.8 0
24.6 0.8 0
24.9 0.8 0
25.2 0.8 0
25.5 0.8 0
25.8 0.8 0
26.1 0.8 0
26.4 0.8 0
26.7 0.8 0
27 0.8 0
27.3 0.8 0
27.6 0.8 0
27.9 0.8 0
28.2 0.8 0
28.5 0.8 0
28.8 0.8 0
29.1 0.8 0
29.4 0.8 0
29.7 0.8 0
30 0.8 0
30.3 0.8 0
0 0.9 0
0.3 0.9 0
0.6 0.9 0
0.9 0.9 0
1.2 0.9 0
1.5 0.9 0
1.8 0.9 0
2.1 0.9 0
2.4 0.9 0
2.7 0.9 0
3 0.9 0
3.3 0.9 0
3.6 0.9 0
3.9 0.9 0
4.2 0.9 0
4.5 0.9 0
4.8 0.9 0
5.1 0.9 0
5.4 0.9 0
5.7 0.9 0
6 0.9 0
6.3 0.9 0
6.6 0.9 0
6.9 0.9 0
7.2 0.9 0
7.5 0.9 0
7.8 0.9 0
8.1 0.9 0
8.4 0.9 0
8.7 0.9 0
9 0.9 0
9.3 0.9 0
9.6 0.9 0
9.9 0.9 0
10.2 0.9 0
10.5 0.9 0
10.8 0.9 0
11.1 0.9 0
11.4 0.9 0
11.7 0.9 0
12 0.9 0
12.3 0.9 0
12.6 0.9 0
12.9 0.9 0
13.2 0.9 0
13.5 0.9 0
13.8 0.9 0
14.1 0.9 0
14.4 0.9 0
14.7 0.9 0
15 0.9 0
15.3 0.9 0
15.6 0.9 0
15.9 0.9 0
16.2 0.9 0
16.5 0.9 0
16.8 0.9 0
17.1 0.9 0
17.4 0.9 0
17.7 0.9 0
18 0.9 0
18.3 0.9 0
18.6 0.9 0
18.9 0.9 0
19.2 0.9 0
19.5 0.9 0
19.8 0.9 0
20.1 0.9 0
20.4 0.9 0
20.7 0.9 0
21 0.9 0
21.3 0.9 0
21.6 0.9 0
21.9 0.9 0
22.2 0.9 0
22.5 0.9 0
22.8 0.9 0
23.1 0.9 0
23.4 0.9 0
23.7 0.9 0
24 0.9 0
24.3 0.9 0
24.6 0.9 0
24.9 0.9 0
25.2 0.9 0
25.5 0.9 0
25.8 0.9 0
26.1 0.9 0
26.4 0.9 0
26.7 0.9 0
27 0.9 0
27.3 0.9 0
27.6 0.9 0
27.9 0.9 0
28.2 0.9 0
28.5 0.9 0
28.8 0.9 0
29.1 0.9 0
29.4 0.9 0
29.7 0.9 0
30 0.9 0
30.3 0.9 0
0 1 0
0.3 1 0
0.6 1 0
0.9 1 0
1.2 1 0
1.5 1 0
1.8 1 0
2.1 1 0
2.4 1 0
2.7 1 0
3 1 0
3.3 1 0
3.6 1 0
3.9 1 0
4.2 1 0
4.5 1 0
4.8 1 0
5.1 1 0
5.4 1 0
5.7 1 0
6 1 0
6.3 1 0
6.6 1 0
6.9 1 0
7.2 1 0
7.5 1 0
7.8 1 0
8.1 1 0
8.4 1 0
8.7 1 0
9 1 0
9.3 1 0
9.6 1 0
9.9 1 0
10.2 1 0
10.5 1 0
10.8 1 0
11.1 1 0
11.4 1 0
11.7 1 0
12 1 0
12.3 1 0
12.6 1 0
12.9 1 0
13.2 1 0
13.5 1 0
13.8 1 0
14.1 1 0
14.4 1 0
14.7 1 0
15 1 0
15.3 1 0
15.6 1 0
15.9 1 0
16.2 1 0
16.5 1 0
16.8 1 0
17.1 1 0
17.4 1 0
17.7 1 0
18 1 0
18.3 1 0
18.6 1 0
18.9 1 0
19.2 1 0
19.5 1 0
19.8 1 0
20.1 1 0
20.4 1 0
20.7 1 0
21 1 0
21.3 1 0
21.6 1 0
21.9 1 0
22.2 1 0
22.5 1 0
22.8 1 0
23.1 1 0
23.4 1 0
23.7 1 0
24 1 0
24.3 1 0
24.6 1 0
24.9 1 0
25.2 1 0
25.5 1 0
25.8 1 0
26.1 1 0
26.4 1 0
26.7 1 0
27 1 0
27.3 1 0
27.6 1 0
27.9 1 0
28.2 1 0
28.5 1 0
28.8 1 0
29.1 1 0
29.4 1 0
29.7 1 0
30 1 0
30.3 1 0
0 1.1 0
0.3 1.1 0
0.6 1.1 0
0.9 1.1 0
1.2 1.1 0
1.5 1.1 0
1.8 1.1 0
2.1 1.1 0
2.4 1.1 0
2.7 1.1 0
3 1.1 0
3.3 1.1 0
3.6 1.1 0
3.9 1.1 0
4.2 1.1 0
4.5 1.1 0
4.8 1.1 0
5.1 1.1 0
5.4 1.1 0
5.7 1.1 0
6 1.1 0
6.3 1.1 0
6.6 1.1 0
6.9 1.1 0
7.2 1.1 0
7.5 1.1 0
7.8 1.1 0
8.1 1.1 0
8.4 1.1 0
8.7 1.1 0
9 1.1 0
9.3 1.1 0
9.6 1.1 0
9.9 1.1 0
10.2 1.1 0
10.5 1.1 0
10.8 1.1 0
11.1 1.1 0
11.4 1.1 0
11.7 1.1 0
12 1.1 0
12.3 1.1 0
12.6 1.1 0
12.9 1.1 0
13.2 1.1 0
13.5 1.1 0
13.8 1.1 0
14.1 1.1 0
14.4 1.1 0
14.7 1.1 0
15 1.1 0
15.3 1.1 0
15.6 1.1 0
15.9 1.1 0
16.2 1.1 0
16.5 1.1 0
16.8 1.1 0
17.1 1.1 0
17.4 1.1 0
17.7 1.1 0
18 1.1 0
18.3 1.1 0
18.6 1.1 0
18.9 1.1 0
19.2 1.1 0
19.5 1.1 0
19.8 1.1 0
20.1 1.1 0
20.4 1.1 0
20.7 1.1 0
21 1.1 0
21.3 1.1 0
21.6 1.1 0
21.9 1.1 0
22.2 1.1 0
22.5 1.1 0
22.8 1.1 0
23.1 1.1 0
23.4 1.1 0
23.7 1.1 0
24 1.1 0
24.3 1.1 0
24.6 1.1 0
24.9 1.1 0
25.2 1.1 0
25.5 1.1 0
25.8 1.1 0
26.1 1.1 0
26.4 1.1 0
26.7 1.1 0
27 1.1 0
27.3 1.1 0
27.6 1.1 0
27.9 1.1 0
28.2 1.1 0
28.5 1.1 0
28.8 1.1 0
29.1 1.1 0
29.4 1.1 0
29.7 1.1 0
30 1.1 0
30.3 1.1 0
0 1.2 0
0.3 1.2 0
0.6 1.2 0
0.9 1.2 0
1.2 1.2 0
1.5 1.2 0
1.8 1.2 0
2.1 1.2 0
2.4 1.2 0
2.7 1.2 0
3 1.2 0
3.3 1.2 0
3.6 1.2 0
3.9 1.2 0
4.2 1.2 0
4.5 1.2 0
4.8 1.2 0
5.1 1.2 0
5.4 1.2 0
5.7 1.2 0
6 1.2 0
6.3 1.2 0
6.6 1.2 0
6.9 1.2 0
7.2 1.2 0
7.5 1.2 0
7.8 1.2 0
8.1 1.2 0
8.4 1.2 0
8.7 1.2 0
9 1.2 0
9.3 1.2 0
9.6 1.2 0
9.9 1.2 0
10.2 1.2 0
10.5 1.2 0
10.8 1.2 0
11.1 1.2 0
11.4 1.2 0
11.7 1.2 0
12 1.2 0
12.3 1.2 0
12.6 1.2 0
12.9 1.2 0
13.2 1.2 0
13.5 1.2 0
13.8 1.2 0
14.1 1.2 0
14.4 1.2 0
14.7 1.2 0
15 1.2 0
15.3 1.2 0
15.6 1.2 0
15.9 1.2 0
16.2 1.2 0
16.5 1.2 0
16.8 1.2 0
17.1 1.2 0
17.4 1.2 0
17.7 1.2 0
18 1.2 0
18.3 1.2 0
18.6 1.2 0
18.9 1.2 0
19.2 1.2 0
19.5 1.2 0
19.8 1.2 0
20.1 1.2 0
20.4 1.2 0
20.7 1.2 0
21 1.2 0
21.3 1.2 0
21.6 1.2 0
21.9 1.2 0
22.2 1.2 0
22.5 1.2 0
22.8 1.2 0
23.1 1.2 0
23.4 1.2 0
23.7 1.2 0
24 1.2 0
24.3 1.2 0
24.6 1.2 0
24.9 1.2 0
25.2 1.2 0
25.5 1.2 0
25.8 1.2 0
26.1 1.2 0
26.4 1.2 0
26.7 1.2 0
27 1.2 0
27.3 1.2 0
27.6 1.2 0
27.9 1.2 0
28.2 1.2 0
28.5 1.2 0
28.8 1.2 0
29.1 1.2 0
29.4 1.2 0
29.7 1.2 0
30 1.2 0
30.3 1.2 0

POINT_DATA 1326

SCALARS phi double
LOOKUP_TABLE default
1
1
1
1
0.999998
0.999994
0.99998
0.999959
0.999919
0.999805
0.999643
0.999642
0.999819
0.999305
0.996087
0.987603
0.971763
0.947688
0.915786
0.877347
0.834008
0.787358
0.738748
0.689255
0.639714
0.590767
0.542905
0.496492
0.451793
0.408992
0.368215
0.329544
0.293035
0.258732
0.226674
0.196901
0.169449
0.144351
0.121629
0.101283
0.0832894
0.0675891
0.0540889
0.04266
0.033142
0.02535
0.0190828
0.0141327
0.0102946
0.00737383
0.00519291
0.0035951
0.00244658
0.00163661
0.00107613
0.000695551
0.000441941
0.000276059
0.000169544
0.000102389
6.08092e-05
3.55211e-05
2.04111e-05
1.15391e-05
6.4191e-06
3.5143e-06
1.89382e-06
1.00471e-06
5.24835e-07
2.69993e-07
1.36805e-07
6.82883e-08
3.35858e-08
1.62779e-08
7.7759e-09
3.66166e-09
1.7e-09
7.78278e-10
3.51399e-10
1.56499e-10
6.876e-11
2.98081e-11
1.27518e-11
5.38404e-12
2.24391e-12
9.2326e-13
3.75078e-13
1.50472e-13
5.96186e-14
2.33323e-14
9.02058e-15
3.44562e-15
1.3005e-15
4.85076e-16
1.78821e-16
6.51613e-17
2.34728e-17
8.36007e-18
2.94384e-18
1.02765e-18
3.3176e-19
3.3176e-19
1
1
1
1
0.999998
0.999994
0.99998
0.999959
0.999919
0.999805
0.999643
0.999642
0.999819
0.999305
0.996087
0.987603
0.971763
0.947688
0.915786
0.877347
0.834008
0.787358
0.738748
0.689255
0.639714
0.590767
0.542905
0.496492
0.451793
0.408992
0.368215
0.329544
0.293035
0.258732
0.226674
0.196901
0.169449
0.144351
0.121629
0.101283
0.0832894
0.0675891
0.0540889
0.04266
0.033142
0.02535
0.0190828
0.0141327
0.0102946
0.00737383
0.00519291
0.0035951
0.00244658
0.00163661
0.00107613
0.000695551
0.000441941
0.000276059
0.000169544
0.000102389
6.08092e-05
3.55211e-05
2.04111e-05
1.15391e-05
6.4191e-06
3.5143e-06
1.89382e-06
1.00471e-06
5.24835e-07
2.69993e-07
1.36805e-07
6.82883e-08
3.35858e-08
1.62779e-08
7.7759e-09
3.66166e-09
1.7e-09
7.78278e-10
3.51399e-10
1.56499e-10
6.876e-11
2.98081e-11
1.27518e-11
5.38404e-12
2.24391e-12
9.2326e-13
3.75078e-13
1.50472e-13
5.96186e-14
2.33323e-14
9.02058e-15
3.44562e-15
1.3005e-15
4.85076e-16
1.78821e-16
6.51613e-17
2.34728e-17
8.36007e-18
2.94384e-18
1.02765e-18
3.3176e-19
3.3176e-19
1
1
1
0.999996
0.999983
0.999954
0.999898
0.999803
0.99966
0.999447
0.999141
0.998768
0.998381
0.997914
0.996985
0.994808
0.990324
0.982466
0.970408
0.953713
0.932341
0.906578
0.876925
0.844003
0.808481
0.771019
0.732234
0.69268
0.652821
0.613028
0.573571
0.534625
0.496287
0.458592
0.421542
0.385139
0.349407
0.31442
0.280319
0.247309
0.215657
0.185666
0.157648
0.131891
0.10863
0.0880186
0.0701166
0.0548874
0.0422044
0.0318671
0.023623
0.0171897
0.0122775
0.00860697
0.00592237
0.00400012
0.0026523
0.00172662
0.00110372
0.000692902
0.000427282
0.000258861
0.000154102
9.01631e-05
5.18576e-05
2.93258e-05
1.6309e-05
8.92147e-06
4.80137e-06
2.54274e-06
1.32536e-06
6.80066e-07
3.43585e-07
1.70951e-07
8.37804e-08
4.04512e-08
1.9245e-08
9.02358e-09
4.17055e-09
1.90036e-09
8.53848e-10
3.78355e-10
1.65373e-10
7.13091e-11
3.03395e-11
1.27386e-11
5.27895e-12
2.1595e-12
8.72163e-13
3.47811e-13
1.36978e-13
5.32814e-14
2.04728e-14
7.77159e-15
2.91493e-15
1.08041e-15
3.95765e-16
1.43298e-16
5.12847e-17
1.81964e-17
5.94843e-18
5.94843e-18
0.999997
1
0.99998
0.999896
0.999724
0.999434
0.998999
0.998397
0.997613
0.996637
0.995462
0.994094
0.992549
0.990846
0.988966
0.986805
0.984147
0.980671
0.975995
0.969729
0.961533
0.951145
0.938404
0.923247
0.905708
0.8859
0.863999
0.840231
0.814845
0.788095
0.760214
0.731392
0.70175
0.671324
0.640064
0.607833
0.574442
0.539687
0.50341
0.465556
0.426232
0.385739
0.344573
0.303405
0.263022
0.224248
0.187865
0.154536
0.124746
0.0987763
0.0766958
0.0583843
0.0435689
0.0318713
0.0228548
0.0160673
0.0110752
0.00748633
0.00496334
0.00322815
0.00206017
0.00129039
0.000793426
0.000479034
0.000284058
0.000165475
9.47216e-05
5.32922e-05
2.94767e-05
1.60324e-05
8.57679e-06
4.51395e-06
2.33772e-06
1.1916e-06
5.97942e-07
2.95444e-07
1.4377e-07
6.89169e-08
3.25487e-08
1.51487e-08
6.94916e-09
3.14258e-09
1.40124e-09
6.16157e-10
2.67235e-10
1.14338e-10
4.82679e-11
2.01076e-11
8.26738e-12
3.3554e-12
1.34448e-12
5.31937e-13
2.07838e-13
8.02057e-14
3.05747e-14
1.15147e-14
4.28478e-15
1.57563e-15
5.72564e-16
2.06253e-16
6.83107e-17
6.83107e-17
0.999999
1
0.99943
0.998224
0.996402
0.994008
0.991093
0.987716
0.983939
0.979828
0.975446
0.970853
0.966101
0.96124
0.956308
0.951327
0.946292
0.941162
0.93586
0.930274
0.924271
0.917703
0.910421
0.902289
0.893188
0.883025
0.871733
0.859279
0.845658
0.830894
0.815032
0.798122
0.78021
0.761302
0.741343
0.720186
0.697566
0.673108
0.646347
0.61679
0.584008
0.547732
0.507952
0.464981
0.41948
0.372412
0.324962
0.278414
0.234011
0.192839
0.155726
0.123196
0.0954598
0.0724426
0.0538414
0.0391938
0.0279481
0.0195251
0.0133667
0.0089691
0.00590023
0.00380625
0.00240852
0.00149536
0.000911174
0.000545053
0.000320167
0.000184727
0.000104718
5.83394e-05
3.19495e-05
1.72044e-05
9.11161e-06
4.7472e-06
2.43372e-06
1.22798e-06
6.09964e-07
2.98332e-07
1.43706e-07
6.81893e-08
3.18798e-08
1.46878e-08
6.67e-09
2.98609e-09
1.31816e-09
5.73852e-10
2.46418e-10
1.0439e-10
4.36347e-11
1.79995e-11
7.32846e-12
2.94548e-12
1.16883e-12
4.58003e-13
1.77241e-13
6.77482e-14
2.55817e-14
9.5438e-15
3.51778e-15
1.28518e-15
4.31094e-16
4.31094e-16
1.00149
0.998508
0.989831
0.978334
0.965614
0.952521
0.939508
0.926817
0.914586
0.90289
0.891766
0.881225
0.871261
0.861853
0.852974
0.844594
0.836676
0.82918
0.822059
0.815256
0.808709
0.802345
0.796084
0.789843
0.783536
0.777074
0.770375
0.763358
0.755952
0.748099
0.739753
0.730884
0.721473
0.711499
0.700918
0.689624
0.67741
0.66393
0.648678
0.631009
0.610191
0.585516
0.556426
0.522647
0.484296
0.441928
0.396517
0.349364
0.301956
0.255803
0.212278
0.172488
0.137201
0.106817
0.0813966
0.0607121
0.0443307
0.0316936
0.0221906
0.0152197
0.0102281
0.00673688
0.00435034
0.00275497
0.00171147
0.0010433
0.000624254
0.000366739
0.000211602
0.000119942
6.68086e-05
3.65781e-05
1.96903e-05
1.0424e-05
5.42853e-06
2.78162e-06
1.40277e-06
6.96381e-07
3.40391e-07
1.63861e-07
7.77016e-08
3.63022e-08
1.67137e-08
7.58458e-09
3.39308e-09
1.49672e-09
6.51103e-10
2.79381e-10
1.18265e-10
4.93971e-11
2.03611e-11
8.28369e-12
3.32688e-12
1.31919e-12
5.16528e-13
1.99739e-13
7.62906e-14
2.87861e-14
1.07299e-14
3.96393e-15
1.34338e-15
1.34338e-15
1.04825
0.951752
0.875703
0.818254
0.774815
0.7415
0.715492
0.694815
0.67809
0.664344
0.652885
0.64321
0.634947
0.627818
0.621611
0.61616
0.611336
0.607038
0.603182
0.599697
0.596524
0.593608
0.590899
0.58835
0.585914
0.583545
0.581197
0.578824
0.576381
0.573827
0.571126
0.56825
0.565183
0.561911
0.55841
0.554618
0.550387
0.545443
0.539346
0.531479
0.521084
0.507339
0.489481
0.466955
0.439536
0.407429
0.371285
0.332156
0.29138
0.250427
0.21073
0.173544
0.139835
0.110229
0.0850053
0.0641359
0.0473508
0.0342146
0.0242024
0.0167644
0.0113742
0.00756122
0.00492647
0.00314694
0.00197145
0.00121162
0.000730742
0.000432626
0.000251502
0.000143608
8.05658e-05
4.442e-05
2.40759e-05
1.28314e-05
6.72624e-06
3.46883e-06
1.7604e-06
8.79354e-07
4.32453e-07
2.09428e-07
9.98956e-08
4.69425e-08
2.17361e-08
9.91933e-09
4.46223e-09
1.97912e-09
8.65608e-10
3.73405e-10
1.58899e-10
6.67146e-11
2.76407e-11
1.13025e-11
4.56213e-12
1.81799e-12
7.15342e-13
2.77967e-13
1.06683e-13
4.04462e-14
1.51475e-14
5.62241e-15
1.91385e-15
1.91385e-15
-0.0446953
0.0446953
0.107508
0.152458
0.185771
0.211397
0.231802
0.248527
0.262547
0.274503
0.284836
0.293866
0.301832
0.308922
0.315285
0.321041
0.326286
0.331099
0.335543
0.339671
0.343524
0.347136
0.350534
0.35374
0.35677
0.359637
0.362351
0.364921
0.367351
0.369649
0.371819
0.373873
0.375824
0.377681
0.379437
0.381043
0.382367
0.383161
0.383026
0.381406
0.377626
0.370959
0.360735
0.346466
0.32795
0.30535
0.279204
0.25038
0.219978
0.189203
0.159226
0.131065
0.105506
0.0830539
0.0639385
0.048144
0.0354639
0.0255622
0.0180342
0.012457
0.00842718
0.00558525
0.00362775
0.00230998
0.00144244
0.000883583
0.000531123
0.000313384
0.000181563
0.000103318
5.77627e-05
3.17372e-05
1.71419e-05
9.10408e-06
4.75568e-06
2.44399e-06
1.23595e-06
6.15216e-07
3.01491e-07
1.45493e-07
6.91555e-08
3.23831e-08
1.4942e-08
6.7949e-09
3.04599e-09
1.34625e-09
5.86752e-10
2.52228e-10
1.06959e-10
4.47509e-11
1.84764e-11
7.5289e-12
3.02841e-12
1.20263e-12
4.71574e-13
1.82611e-13
6.98439e-14
2.63884e-14
9.8488e-15
3.64302e-15
1.23607e-15
1.23607e-15
-0.00141662
0.00141662
0.00819779
0.0166628
0.0258774
0.0354227
0.0450904
0.0547524
0.0643114
0.0736888
0.0828236
0.0916735
0.100213
0.108431
0.116327
0.123909
0.131188
0.138179
0.144897
0.15136
0.157582
0.163578
0.169362
0.174946
0.180342
0.18556
0.190613
0.195511
0.200269
0.204902
0.209426
0.21386
0.218215
0.222491
0.226654
0.230613
0.234197
0.237129
0.239028
0.23942
0.237791
0.233651
0.226623
0.216517
0.203385
0.187543
0.169542
0.150112
0.130076
0.110256
0.0913883
0.0740626
0.0586829
0.0454632
0.0344434
0.0255235
0.0185042
0.0131285
0.00911825
0.00620146
0.00413147
0.00269704
0.00172579
0.00108281
0.000666373
0.000402372
0.000238463
0.000138749
7.92848e-05
4.45068e-05
2.45508e-05
1.33116e-05
7.09637e-06
3.7205e-06
1.91883e-06
9.73753e-07
4.86346e-07
2.39126e-07
1.15769e-07
5.52004e-08
2.59278e-08
1.19992e-08
5.47264e-09
2.46025e-09
1.09039e-09
4.76531e-10
2.05391e-10
8.73234e-11
3.6628e-11
1.51601e-11
6.19248e-12
2.49674e-12
9.93784e-13
3.9056e-13
1.51573e-13
5.80979e-14
2.19967e-14
8.22776e-15
3.04037e-15
1.11352e-15
3.74377e-16
3.74377e-16
-1.11745e-05
1.11745e-05
0.00042735
0.00124909
0.0024865
0.00414883
0.00623842
0.00874492
0.0116437
0.0148985
0.0184667
0.0223034
0.0263657
0.0306143
0.0350145
0.0395362
0.0441537
0.0488452
0.0535919
0.058377
0.0631855
0.0680031
0.0728155
0.0776085
0.0823683
0.0870816
0.0917368
0.0963243
0.100837
0.10527
0.109615
0.113859
0.117971
0.121893
0.125527
0.128723
0.131275
0.132929
0.133405
0.132425
0.129762
0.125279
0.118963
0.110941
0.101479
0.0909564
0.0798234
0.0685534
0.0575932
0.0473222
0.0380253
0.0298815
0.0229666
0.0172674
0.0127023
0.00914476
0.00644488
0.00444773
0.00300659
0.00199141
0.00129281
0.000822873
0.000513684
0.000314602
0.000189087
0.000111566
6.46397e-05
3.67869e-05
2.05701e-05
1.13045e-05
6.10735e-06
3.24458e-06
1.69543e-06
8.71616e-07
4.4096e-07
2.19586e-07
1.07657e-07
5.19765e-08
2.47169e-08
1.15796e-08
5.34562e-09
2.43215e-09
1.09082e-09
4.82362e-10
2.10342e-10
9.04666e-11
3.83829e-11
1.60674e-11
6.63719e-12
2.70597e-12
1.089e-12
4.3268e-13
1.69747e-13
6.57653e-14
2.51659e-14
9.5128e-15
3.55256e-15
1.31092e-15
4.77977e-16
1.72748e-16
5.73898e-17
5.73898e-17
1.77951e-06
-1.77951e-06
1.46452e-05
7.0561e-05
0.000191297
0.000407208
0.000751294
0.00125576
0.0019487
0.0028519
0.00398019
0.00534175
0.00693921
0.00877083
0.0108316
0.0131139
0.0156082
0.0183022
0.0211812
0.0242268
0.0274166
0.0307237
0.0341173
0.0375628
0.0410234
0.0444611
0.047838
0.0511164
0.0542576
0.0572201
0.059956
0.0624073
0.064503
0.0661581
0.0672754
0.0677518
0.0674883
0.0664032
0.0644469
0.0616144
0.057954
0.053569
0.0486126
0.0432744
0.0377637
0.0322892
0.0270407
0.0221741
0.0178025
0.0139925
0.0107671
0.0081119
0.00598451
0.00432401
0.00306046
0.00212238
0.00144246
0.000961039
0.000627838
0.000402294
0.000252899
0.000156019
9.44841e-05
5.61832e-05
3.28125e-05
1.88266e-05
1.06151e-05
5.88303e-06
3.20566e-06
1.71783e-06
9.05509e-07
4.69635e-07
2.39708e-07
1.20436e-07
5.9577e-08
2.9023e-08
1.39264e-08
6.58344e-09
3.06672e-09
1.40795e-09
6.37192e-10
2.84319e-10
1.25104e-10
5.42927e-11
2.32429e-11
9.81723e-12
4.09175e-12
1.68313e-12
6.83411e-13
2.73947e-13
1.08427e-13
4.2379e-14
1.63596e-14
6.23817e-15
2.34999e-15
8.7469e-16
3.21717e-16
1.16948e-16
4.20149e-17
1.49632e-17
4.90856e-18
4.90856e-18
1.29312e-07
-1.29312e-07
2.38856e-07
4.46748e-06
2.01123e-05
6.11026e-05
0.000148705
0.000310434
0.000577096
0.000979219
0.00154415
0.00229444
0.00324748
0.00441583
0.00580752
0.00742558
0.0092669
0.0113208
0.0135677
0.0159788
0.0185161
0.0211335
0.0237784
0.0263934
0.0289183
0.0312917
0.0334526
0.035342
0.0369037
0.0380865
0.0388455
0.0391444
0.0389582
0.0382762
0.0371041
0.035466
0.033406
0.0309864
0.0282861
0.0253959
0.0224126
0.0194328
0.0165462
0.0138298
0.0113435
0.00912835
0.00720561
0.00557866
0.00423587
0.00315429
0.00230365
0.00165013
0.00115943
0.000799197
0.00054051
0.00035873
0.000233681
0.000149435
9.38301e-05
5.78606e-05
3.50482e-05
2.08586e-05
1.21993e-05
7.01312e-06
3.96376e-06
2.20302e-06
1.20431e-06
6.47677e-07
3.42746e-07
1.78513e-07
9.15251e-08
4.6203e-08
2.29693e-08
1.12475e-08
5.42594e-09
2.57923e-09
1.20831e-09
5.57983e-10
2.54033e-10
1.14041e-10
5.04905e-11
2.20497e-11
9.4998e-12
4.0384e-12
1.69417e-12
7.01488e-13
2.86724e-13
1.15705e-13
4.61042e-14
1.81424e-14
7.05129e-15
2.70721e-15
1.02686e-15
3.84846e-16
1.4253e-16
5.21699e-17
1.88746e-17
6.75068e-18
2.38682e-18
8.36521e-19
2.71053e-19
2.71053e-19
1.29312e-07
-1.29312e-07
2.38856e-07
4.46748e-06
2.01123e-05
6.11026e-05
0.000148705
0.000310434
0.000577096
0.000979219
0.00154415
0.00229444
0.00324748
0.00441583
0.00580752
0.00742558
0.0092669
0.0113208
0.0135677
0.0159788
0.0185161
0.0211335
0.0237784
0.0263934
0.0289183
0.0312917
0.0334526
0.035342
0.0369037
0.0380865
0.0388455
0.0391444
0.0389582
0.0382762
0.0371041
0.035466
0.033406
0.0309864
0.0282861
0.0253959
0.0224126
0.0194328
0.0165462
0.0138298
0.0113435
0.00912835
0.00720561
0.00557866
0.00423587
0.00315429
0.00230365
0.00165013
0.00115943
0.000799197
0.00054051
0.00035873
0.000233681
0.000149435
9.38301e-05
5.78606e-05
3.50482e-05
2.08586e-05
1.21993e-05
7.01312e-06
3.96376e-06
2.20302e-06
1.20431e-06
6.47677e-07
3.42746e-07
1.78513e-07
9.15251e-08
4.6203e-08
2.29693e-08
1.12475e-08
5.42594e-09
2.57923e-09
1.20831e-09
5.57983e-10
2.54033e-10
1.14041e-10
5.04905e-11
2.20497e-11
9.4998e-12
4.0384e-12
1.69417e-12
7.01488e-13
2.86724e-13
1.15705e-13
4.61042e-14
1.81424e-14
7.05129e-15
2.70721e-15
1.02686e-15
3.84846e-16
1.4253e-16
5.21699e-17
1.88746e-17
6.75068e-18
2.38682e-18
8.36521e-19
2.71053e-19
2.71053e-19
