# vtk DataFile Version 2.0
FlowField
ASCII
DATASET STRUCTURED_GRID
DIMENSIONS 101 11 1 
POINTS 1111 double
0 0 0
0.3 0 0
0.6 0 0
0.9 0 0
1.2 0 0
1.5 0 0
1.8 0 0
2.1 0 0
2.4 0 0
2.7 0 0
3 0 0
3.3 0 0
3.6 0 0
3.9 0 0
4.2 0 0
4.5 0 0
4.8 0 0
5.1 0 0
5.4 0 0
5.7 0 0
6 0 0
6.3 0 0
6.6 0 0
6.9 0 0
7.2 0 0
7.5 0 0
7.8 0 0
8.1 0 0
8.4 0 0
8.7 0 0
9 0 0
9.3 0 0
9.6 0 0
9.9 0 0
10.2 0 0
10.5 0 0
10.8 0 0
11.1 0 0
11.4 0 0
11.7 0 0
12 0 0
12.3 0 0
12.6 0 0
12.9 0 0
13.2 0 0
13.5 0 0
13.8 0 0
14.1 0 0
14.4 0 0
14.7 0 0
15 0 0
15.3 0 0
15.6 0 0
15.9 0 0
16.2 0 0
16.5 0 0
16.8 0 0
17.1 0 0
17.4 0 0
17.7 0 0
18 0 0
18.3 0 0
18.6 0 0
18.9 0 0
19.2 0 0
19.5 0 0
19.8 0 0
20.1 0 0
20.4 0 0
20.7 0 0
21 0 0
21.3 0 0
21.6 0 0
21.9 0 0
22.2 0 0
22.5 0 0
22.8 0 0
23.1 0 0
23.4 0 0
23.7 0 0
24 0 0
24.3 0 0
24.6 0 0
24.9 0 0
25.2 0 0
25.5 0 0
25.8 0 0
26.1 0 0
26.4 0 0
26.7 0 0
27 0 0
27.3 0 0
27.6 0 0
27.9 0 0
28.2 0 0
28.5 0 0
28.8 0 0
29.1 0 0
29.4 0 0
29.7 0 0
30 0 0
0 0.1 0
0.3 0.1 0
0.6 0.1 0
0.9 0.1 0
1.2 0.1 0
1.5 0.1 0
1.8 0.1 0
2.1 0.1 0
2.4 0.1 0
2.7 0.1 0
3 0.1 0
3.3 0.1 0
3.6 0.1 0
3.9 0.1 0
4.2 0.1 0
4.5 0.1 0
4.8 0.1 0
5.1 0.1 0
5.4 0.1 0
5.7 0.1 0
6 0.1 0
6.3 0.1 0
6.6 0.1 0
6.9 0.1 0
7.2 0.1 0
7.5 0.1 0
7.8 0.1 0
8.1 0.1 0
8.4 0.1 0
8.7 0.1 0
9 0.1 0
9.3 0.1 0
9.6 0.1 0
9.9 0.1 0
10.2 0.1 0
10.5 0.1 0
10.8 0.1 0
11.1 0.1 0
11.4 0.1 0
11.7 0.1 0
12 0.1 0
12.3 0.1 0
12.6 0.1 0
12.9 0.1 0
13.2 0.1 0
13.5 0.1 0
13.8 0.1 0
14.1 0.1 0
14.4 0.1 0
14.7 0.1 0
15 0.1 0
15.3 0.1 0
15.6 0.1 0
15.9 0.1 0
16.2 0.1 0
16.5 0.1 0
16.8 0.1 0
17.1 0.1 0
17.4 0.1 0
17.7 0.1 0
18 0.1 0
18.3 0.1 0
18.6 0.1 0
18.9 0.1 0
19.2 0.1 0
19.5 0.1 0
19.8 0.1 0
20.1 0.1 0
20.4 0.1 0
20.7 0.1 0
21 0.1 0
21.3 0.1 0
21.6 0.1 0
21.9 0.1 0
22.2 0.1 0
22.5 0.1 0
22.8 0.1 0
23.1 0.1 0
23.4 0.1 0
23.7 0.1 0
24 0.1 0
24.3 0.1 0
24.6 0.1 0
24.9 0.1 0
25.2 0.1 0
25.5 0.1 0
25.8 0.1 0
26.1 0.1 0
26.4 0.1 0
26.7 0.1 0
27 0.1 0
27.3 0.1 0
27.6 0.1 0
27.9 0.1 0
28.2 0.1 0
28.5 0.1 0
28.8 0.1 0
29.1 0.1 0
29.4 0.1 0
29.7 0.1 0
30 0.1 0
0 0.2 0
0.3 0.2 0
0.6 0.2 0
0.9 0.2 0
1.2 0.2 0
1.5 0.2 0
1.8 0.2 0
2.1 0.2 0
2.4 0.2 0
2.7 0.2 0
3 0.2 0
3.3 0.2 0
3.6 0.2 0
3.9 0.2 0
4.2 0.2 0
4.5 0.2 0
4.8 0.2 0
5.1 0.2 0
5.4 0.2 0
5.7 0.2 0
6 0.2 0
6.3 0.2 0
6.6 0.2 0
6.9 0.2 0
7.2 0.2 0
7.5 0.2 0
7.8 0.2 0
8.1 0.2 0
8.4 0.2 0
8.7 0.2 0
9 0.2 0
9.3 0.2 0
9.6 0.2 0
9.9 0.2 0
10.2 0.2 0
10.5 0.2 0
10.8 0.2 0
11.1 0.2 0
11.4 0.2 0
11.7 0.2 0
12 0.2 0
12.3 0.2 0
12.6 0.2 0
12.9 0.2 0
13.2 0.2 0
13.5 0.2 0
13.8 0.2 0
14.1 0.2 0
14.4 0.2 0
14.7 0.2 0
15 0.2 0
15.3 0.2 0
15.6 0.2 0
15.9 0.2 0
16.2 0.2 0
16.5 0.2 0
16.8 0.2 0
17.1 0.2 0
17.4 0.2 0
17.7 0.2 0
18 0.2 0
18.3 0.2 0
18.6 0.2 0
18.9 0.2 0
19.2 0.2 0
19.5 0.2 0
19.8 0.2 0
20.1 0.2 0
20.4 0.2 0
20.7 0.2 0
21 0.2 0
21.3 0.2 0
21.6 0.2 0
21.9 0.2 0
22.2 0.2 0
22.5 0.2 0
22.8 0.2 0
23.1 0.2 0
23.4 0.2 0
23.7 0.2 0
24 0.2 0
24.3 0.2 0
24.6 0.2 0
24.9 0.2 0
25.2 0.2 0
25.5 0.2 0
25.8 0.2 0
26.1 0.2 0
26.4 0.2 0
26.7 0.2 0
27 0.2 0
27.3 0.2 0
27.6 0.2 0
27.9 0.2 0
28.2 0.2 0
28.5 0.2 0
28.8 0.2 0
29.1 0.2 0
29.4 0.2 0
29.7 0.2 0
30 0.2 0
0 0.3 0
0.3 0.3 0
0.6 0.3 0
0.9 0.3 0
1.2 0.3 0
1.5 0.3 0
1.8 0.3 0
2.1 0.3 0
2.4 0.3 0
2.7 0.3 0
3 0.3 0
3.3 0.3 0
3.6 0.3 0
3.9 0.3 0
4.2 0.3 0
4.5 0.3 0
4.8 0.3 0
5.1 0.3 0
5.4 0.3 0
5.7 0.3 0
6 0.3 0
6.3 0.3 0
6.6 0.3 0
6.9 0.3 0
7.2 0.3 0
7.5 0.3 0
7.8 0.3 0
8.1 0.3 0
8.4 0.3 0
8.7 0.3 0
9 0.3 0
9.3 0.3 0
9.6 0.3 0
9.9 0.3 0
10.2 0.3 0
10.5 0.3 0
10.8 0.3 0
11.1 0.3 0
11.4 0.3 0
11.7 0.3 0
12 0.3 0
12.3 0.3 0
12.6 0.3 0
12.9 0.3 0
13.2 0.3 0
13.5 0.3 0
13.8 0.3 0
14.1 0.3 0
14.4 0.3 0
14.7 0.3 0
15 0.3 0
15.3 0.3 0
15.6 0.3 0
15.9 0.3 0
16.2 0.3 0
16.5 0.3 0
16.8 0.3 0
17.1 0.3 0
17.4 0.3 0
17.7 0.3 0
18 0.3 0
18.3 0.3 0
18.6 0.3 0
18.9 0.3 0
19.2 0.3 0
19.5 0.3 0
19.8 0.3 0
20.1 0.3 0
20.4 0.3 0
20.7 0.3 0
21 0.3 0
21.3 0.3 0
21.6 0.3 0
21.9 0.3 0
22.2 0.3 0
22.5 0.3 0
22.8 0.3 0
23.1 0.3 0
23.4 0.3 0
23.7 0.3 0
24 0.3 0
24.3 0.3 0
24.6 0.3 0
24.9 0.3 0
25.2 0.3 0
25.5 0.3 0
25.8 0.3 0
26.1 0.3 0
26.4 0.3 0
26.7 0.3 0
27 0.3 0
27.3 0.3 0
27.6 0.3 0
27.9 0.3 0
28.2 0.3 0
28.5 0.3 0
28.8 0.3 0
29.1 0.3 0
29.4 0.3 0
29.7 0.3 0
30 0.3 0
0 0.4 0
0.3 0.4 0
0.6 0.4 0
0.9 0.4 0
1.2 0.4 0
1.5 0.4 0
1.8 0.4 0
2.1 0.4 0
2.4 0.4 0
2.7 0.4 0
3 0.4 0
3.3 0.4 0
3.6 0.4 0
3.9 0.4 0
4.2 0.4 0
4.5 0.4 0
4.8 0.4 0
5.1 0.4 0
5.4 0.4 0
5.7 0.4 0
6 0.4 0
6.3 0.4 0
6.6 0.4 0
6.9 0.4 0
7.2 0.4 0
7.5 0.4 0
7.8 0.4 0
8.1 0.4 0
8.4 0.4 0
8.7 0.4 0
9 0.4 0
9.3 0.4 0
9.6 0.4 0
9.9 0.4 0
10.2 0.4 0
10.5 0.4 0
10.8 0.4 0
11.1 0.4 0
11.4 0.4 0
11.7 0.4 0
12 0.4 0
12.3 0.4 0
12.6 0.4 0
12.9 0.4 0
13.2 0.4 0
13.5 0.4 0
13.8 0.4 0
14.1 0.4 0
14.4 0.4 0
14.7 0.4 0
15 0.4 0
15.3 0.4 0
15.6 0.4 0
15.9 0.4 0
16.2 0.4 0
16.5 0.4 0
16.8 0.4 0
17.1 0.4 0
17.4 0.4 0
17.7 0.4 0
18 0.4 0
18.3 0.4 0
18.6 0.4 0
18.9 0.4 0
19.2 0.4 0
19.5 0.4 0
19.8 0.4 0
20.1 0.4 0
20.4 0.4 0
20.7 0.4 0
21 0.4 0
21.3 0.4 0
21.6 0.4 0
21.9 0.4 0
22.2 0.4 0
22.5 0.4 0
22.8 0.4 0
23.1 0.4 0
23.4 0.4 0
23.7 0.4 0
24 0.4 0
24.3 0.4 0
24.6 0.4 0
24.9 0.4 0
25.2 0.4 0
25.5 0.4 0
25.8 0.4 0
26.1 0.4 0
26.4 0.4 0
26.7 0.4 0
27 0.4 0
27.3 0.4 0
27.6 0.4 0
27.9 0.4 0
28.2 0.4 0
28.5 0.4 0
28.8 0.4 0
29.1 0.4 0
29.4 0.4 0
29.7 0.4 0
30 0.4 0
0 0.5 0
0.3 0.5 0
0.6 0.5 0
0.9 0.5 0
1.2 0.5 0
1.5 0.5 0
1.8 0.5 0
2.1 0.5 0
2.4 0.5 0
2.7 0.5 0
3 0.5 0
3.3 0.5 0
3.6 0.5 0
3.9 0.5 0
4.2 0.5 0
4.5 0.5 0
4.8 0.5 0
5.1 0.5 0
5.4 0.5 0
5.7 0.5 0
6 0.5 0
6.3 0.5 0
6.6 0.5 0
6.9 0.5 0
7.2 0.5 0
7.5 0.5 0
7.8 0.5 0
8.1 0.5 0
8.4 0.5 0
8.7 0.5 0
9 0.5 0
9.3 0.5 0
9.6 0.5 0
9.9 0.5 0
10.2 0.5 0
10.5 0.5 0
10.8 0.5 0
11.1 0.5 0
11.4 0.5 0
11.7 0.5 0
12 0.5 0
12.3 0.5 0
12.6 0.5 0
12.9 0.5 0
13.2 0.5 0
13.5 0.5 0
13.8 0.5 0
14.1 0.5 0
14.4 0.5 0
14.7 0.5 0
15 0.5 0
15.3 0.5 0
15.6 0.5 0
15.9 0.5 0
16.2 0.5 0
16.5 0.5 0
16.8 0.5 0
17.1 0.5 0
17.4 0.5 0
17.7 0.5 0
18 0.5 0
18.3 0.5 0
18.6 0.5 0
18.9 0.5 0
19.2 0.5 0
19.5 0.5 0
19.8 0.5 0
20.1 0.5 0
20.4 0.5 0
20.7 0.5 0
21 0.5 0
21.3 0.5 0
21.6 0.5 0
21.9 0.5 0
22.2 0.5 0
22.5 0.5 0
22.8 0.5 0
23.1 0.5 0
23.4 0.5 0
23.7 0.5 0
24 0.5 0
24.3 0.5 0
24.6 0.5 0
24.9 0.5 0
25.2 0.5 0
25.5 0.5 0
25.8 0.5 0
26.1 0.5 0
26.4 0.5 0
26.7 0.5 0
27 0.5 0
27.3 0.5 0
27.6 0.5 0
27.9 0.5 0
28.2 0.5 0
28.5 0.5 0
28.8 0.5 0
29.1 0.5 0
29.4 0.5 0
29.7 0.5 0
30 0.5 0
0 0.6 0
0.3 0.6 0
0.6 0.6 0
0.9 0.6 0
1.2 0.6 0
1.5 0.6 0
1.8 0.6 0
2.1 0.6 0
2.4 0.6 0
2.7 0.6 0
3 0.6 0
3.3 0.6 0
3.6 0.6 0
3.9 0.6 0
4.2 0.6 0
4.5 0.6 0
4.8 0.6 0
5.1 0.6 0
5.4 0.6 0
5.7 0.6 0
6 0.6 0
6.3 0.6 0
6.6 0.6 0
6.9 0.6 0
7.2 0.6 0
7.5 0.6 0
7.8 0.6 0
8.1 0.6 0
8.4 0.6 0
8.7 0.6 0
9 0.6 0
9.3 0.6 0
9.6 0.6 0
9.9 0.6 0
10.2 0.6 0
10.5 0.6 0
10.8 0.6 0
11.1 0.6 0
11.4 0.6 0
11.7 0.6 0
12 0.6 0
12.3 0.6 0
12.6 0.6 0
12.9 0.6 0
13.2 0.6 0
13.5 0.6 0
13.8 0.6 0
14.1 0.6 0
14.4 0.6 0
14.7 0.6 0
15 0.6 0
15.3 0.6 0
15.6 0.6 0
15.9 0.6 0
16.2 0.6 0
16.5 0.6 0
16.8 0.6 0
17.1 0.6 0
17.4 0.6 0
17.7 0.6 0
18 0.6 0
18.3 0.6 0
18.6 0.6 0
18.9 0.6 0
19.2 0.6 0
19.5 0.6 0
19.8 0.6 0
20.1 0.6 0
20.4 0.6 0
20.7 0.6 0
21 0.6 0
21.3 0.6 0
21.6 0.6 0
21.9 0.6 0
22.2 0.6 0
22.5 0.6 0
22.8 0.6 0
23.1 0.6 0
23.4 0.6 0
23.7 0.6 0
24 0.6 0
24.3 0.6 0
24.6 0.6 0
24.9 0.6 0
25.2 0.6 0
25.5 0.6 0
25.8 0.6 0
26.1 0.6 0
26.4 0.6 0
26.7 0.6 0
27 0.6 0
27.3 0.6 0
27.6 0.6 0
27.9 0.6 0
28.2 0.6 0
28.5 0.6 0
28.8 0.6 0
29.1 0.6 0
29.4 0.6 0
29.7 0.6 0
30 0.6 0
0 0.7 0
0.3 0.7 0
0.6 0.7 0
0.9 0.7 0
1.2 0.7 0
1.5 0.7 0
1.8 0.7 0
2.1 0.7 0
2.4 0.7 0
2.7 0.7 0
3 0.7 0
3.3 0.7 0
3.6 0.7 0
3.9 0.7 0
4.2 0.7 0
4.5 0.7 0
4.8 0.7 0
5.1 0.7 0
5.4 0.7 0
5.7 0.7 0
6 0.7 0
6.3 0.7 0
6.6 0.7 0
6.9 0.7 0
7.2 0.7 0
7.5 0.7 0
7.8 0.7 0
8.1 0.7 0
8.4 0.7 0
8.7 0.7 0
9 0.7 0
9.3 0.7 0
9.6 0.7 0
9.9 0.7 0
10.2 0.7 0
10.5 0.7 0
10.8 0.7 0
11.1 0.7 0
11.4 0.7 0
11.7 0.7 0
12 0.7 0
12.3 0.7 0
12.6 0.7 0
12.9 0.7 0
13.2 0.7 0
13.5 0.7 0
13.8 0.7 0
14.1 0.7 0
14.4 0.7 0
14.7 0.7 0
15 0.7 0
15.3 0.7 0
15.6 0.7 0
15.9 0.7 0
16.2 0.7 0
16.5 0.7 0
16.8 0.7 0
17.1 0.7 0
17.4 0.7 0
17.7 0.7 0
18 0.7 0
18.3 0.7 0
18.6 0.7 0
18.9 0.7 0
19.2 0.7 0
19.5 0.7 0
19.8 0.7 0
20.1 0.7 0
20.4 0.7 0
20.7 0.7 0
21 0.7 0
21.3 0.7 0
21.6 0.7 0
21.9 0.7 0
22.2 0.7 0
22.5 0.7 0
22.8 0.7 0
23.1 0.7 0
23.4 0.7 0
23.7 0.7 0
24 0.7 0
24.3 0.7 0
24.6 0.7 0
24.9 0.7 0
25.2 0.7 0
25.5 0.7 0
25.8 0.7 0
26.1 0.7 0
26.4 0.7 0
26.7 0.7 0
27 0.7 0
27.3 0.7 0
27.6 0.7 0
27.9 0.7 0
28.2 0.7 0
28.5 0.7 0
28.8 0.7 0
29.1 0.7 0
29.4 0.7 0
29.7 0.7 0
30 0.7 0
0 0.8 0
0.3 0.8 0
0.6 0.8 0
0.9 0.8 0
1.2 0.8 0
1.5 0.8 0
1.8 0.8 0
2.1 0.8 0
2.4 0.8 0
2.7 0.8 0
3 0.8 0
3.3 0.8 0
3.6 0.8 0
3.9 0.8 0
4.2 0.8 0
4.5 0.8 0
4.8 0.8 0
5.1 0.8 0
5.4 0.8 0
5.7 0.8 0
6 0.8 0
6.3 0.8 0
6.6 0.8 0
6.9 0.8 0
7.2 0.8 0
7.5 0.8 0
7.8 0.8 0
8.1 0.8 0
8.4 0.8 0
8.7 0.8 0
9 0.8 0
9.3 0.8 0
9.6 0.8 0
9.9 0.8 0
10.2 0.8 0
10.5 0.8 0
10.8 0.8 0
11.1 0.8 0
11.4 0.8 0
11.7 0.8 0
12 0.8 0
12.3 0.8 0
12.6 0.8 0
12.9 0.8 0
13.2 0.8 0
13.5 0.8 0
13.8 0.8 0
14.1 0.8 0
14.4 0.8 0
14.7 0.8 0
15 0.8 0
15.3 0.8 0
15.6 0.8 0
15.9 0.8 0
16.2 0.8 0
16.5 0.8 0
16.8 0.8 0
17.1 0.8 0
17.4 0.8 0
17.7 0.8 0
18 0.8 0
18.3 0.8 0
18.6 0.8 0
18.9 0.8 0
19.2 0.8 0
19.5 0.8 0
19.8 0.8 0
20.1 0.8 0
20.4 0.8 0
20.7 0.8 0
21 0.8 0
21.3 0.8 0
21.6 0.8 0
21.9 0.8 0
22.2 0.8 0
22.5 0.8 0
22.8 0.8 0
23.1 0.8 0
23.4 0.8 0
23.7 0.8 0
24 0.8 0
24.3 0.8 0
24.6 0.8 0
24.9 0.8 0
25.2 0.8 0
25.5 0.8 0
25.8 0.8 0
26.1 0.8 0
26.4 0.8 0
26.7 0.8 0
27 0.8 0
27.3 0.8 0
27.6 0.8 0
27.9 0.8 0
28.2 0.8 0
28.5 0.8 0
28.8 0.8 0
29.1 0.8 0
29.4 0.8 0
29.7 0.8 0
30 0.8 0
0 0.9 0
0.3 0.9 0
0.6 0.9 0
0.9 0.9 0
1.2 0.9 0
1.5 0.9 0
1.8 0.9 0
2.1 0.9 0
2.4 0.9 0
2.7 0.9 0
3 0.9 0
3.3 0.9 0
3.6 0.9 0
3.9 0.9 0
4.2 0.9 0
4.5 0.9 0
4.8 0.9 0
5.1 0.9 0
5.4 0.9 0
5.7 0.9 0
6 0.9 0
6.3 0.9 0
6.6 0.9 0
6.9 0.9 0
7.2 0.9 0
7.5 0.9 0
7.8 0.9 0
8.1 0.9 0
8.4 0.9 0
8.7 0.9 0
9 0.9 0
9.3 0.9 0
9.6 0.9 0
9.9 0.9 0
10.2 0.9 0
10.5 0.9 0
10.8 0.9 0
11.1 0.9 0
11.4 0.9 0
11.7 0.9 0
12 0.9 0
12.3 0.9 0
12.6 0.9 0
12.9 0.9 0
13.2 0.9 0
13.5 0.9 0
13.8 0.9 0
14.1 0.9 0
14.4 0.9 0
14.7 0.9 0
15 0.9 0
15.3 0.9 0
15.6 0.9 0
15.9 0.9 0
16.2 0.9 0
16.5 0.9 0
16.8 0.9 0
17.1 0.9 0
17.4 0.9 0
17.7 0.9 0
18 0.9 0
18.3 0.9 0
18.6 0.9 0
18.9 0.9 0
19.2 0.9 0
19.5 0.9 0
19.8 0.9 0
20.1 0.9 0
20.4 0.9 0
20.7 0.9 0
21 0.9 0
21.3 0.9 0
21.6 0.9 0
21.9 0.9 0
22.2 0.9 0
22.5 0.9 0
22.8 0.9 0
23.1 0.9 0
23.4 0.9 0
23.7 0.9 0
24 0.9 0
24.3 0.9 0
24.6 0.9 0
24.9 0.9 0
25.2 0.9 0
25.5 0.9 0
25.8 0.9 0
26.1 0.9 0
26.4 0.9 0
26.7 0.9 0
27 0.9 0
27.3 0.9 0
27.6 0.9 0
27.9 0.9 0
28.2 0.9 0
28.5 0.9 0
28.8 0.9 0
29.1 0.9 0
29.4 0.9 0
29.7 0.9 0
30 0.9 0
0 1 0
0.3 1 0
0.6 1 0
0.9 1 0
1.2 1 0
1.5 1 0
1.8 1 0
2.1 1 0
2.4 1 0
2.7 1 0
3 1 0
3.3 1 0
3.6 1 0
3.9 1 0
4.2 1 0
4.5 1 0
4.8 1 0
5.1 1 0
5.4 1 0
5.7 1 0
6 1 0
6.3 1 0
6.6 1 0
6.9 1 0
7.2 1 0
7.5 1 0
7.8 1 0
8.1 1 0
8.4 1 0
8.7 1 0
9 1 0
9.3 1 0
9.6 1 0
9.9 1 0
10.2 1 0
10.5 1 0
10.8 1 0
11.1 1 0
11.4 1 0
11.7 1 0
12 1 0
12.3 1 0
12.6 1 0
12.9 1 0
13.2 1 0
13.5 1 0
13.8 1 0
14.1 1 0
14.4 1 0
14.7 1 0
15 1 0
15.3 1 0
15.6 1 0
15.9 1 0
16.2 1 0
16.5 1 0
16.8 1 0
17.1 1 0
17.4 1 0
17.7 1 0
18 1 0
18.3 1 0
18.6 1 0
18.9 1 0
19.2 1 0
19.5 1 0
19.8 1 0
20.1 1 0
20.4 1 0
20.7 1 0
21 1 0
21.3 1 0
21.6 1 0
21.9 1 0
22.2 1 0
22.5 1 0
22.8 1 0
23.1 1 0
23.4 1 0
23.7 1 0
24 1 0
24.3 1 0
24.6 1 0
24.9 1 0
25.2 1 0
25.5 1 0
25.8 1 0
26.1 1 0
26.4 1 0
26.7 1 0
27 1 0
27.3 1 0
27.6 1 0
27.9 1 0
28.2 1 0
28.5 1 0
28.8 1 0
29.1 1 0
29.4 1 0
29.7 1 0
30 1 0

POINT_DATA 1111

SCALARS p double
LOOKUP_TABLE default
1.50674
1.50674
1.43802
1.38732
1.34048
1.29704
1.25738
1.22149
1.18902
1.15943
1.1322
1.10685
1.08301
1.06036
1.03868
1.01779
0.997569
0.977904
0.958723
0.939962
0.921574
0.903517
0.885758
0.868267
0.851019
0.833993
0.817169
0.80053
0.78406
0.767746
0.751574
0.735533
0.719613
0.703804
0.688097
0.672485
0.65696
0.641516
0.626145
0.610844
0.595605
0.580425
0.5653
0.550224
0.535194
0.520207
0.50526
0.490349
0.475471
0.460626
0.445809
0.431019
0.416254
0.401513
0.386794
0.372095
0.357416
0.342755
0.328112
0.313484
0.298872
0.284274
0.269689
0.255117
0.240555
0.226004
0.211461
0.196926
0.182399
0.167877
0.15336
0.138848
0.124339
0.109833
0.0953298
0.0808282
0.066328
0.051829
0.0373309
0.0228334
0.00833642
-0.00616025
-0.0206567
-0.0351528
-0.0496488
-0.0641447
-0.0786405
-0.0931363
-0.107632
-0.122128
-0.136624
-0.151119
-0.165615
-0.180111
-0.194607
-0.209103
-0.223598
-0.238094
-0.25259
-0.267084
0.267084
1.50674
1.50674
1.43802
1.38732
1.34048
1.29704
1.25738
1.22149
1.18902
1.15943
1.1322
1.10685
1.08301
1.06036
1.03868
1.01779
0.997569
0.977904
0.958723
0.939962
0.921574
0.903517
0.885758
0.868267
0.851019
0.833993
0.817169
0.80053
0.78406
0.767746
0.751574
0.735533
0.719613
0.703804
0.688097
0.672485
0.65696
0.641516
0.626145
0.610844
0.595605
0.580425
0.5653
0.550224
0.535194
0.520207
0.50526
0.490349
0.475471
0.460626
0.445809
0.431019
0.416254
0.401513
0.386794
0.372095
0.357416
0.342755
0.328112
0.313484
0.298872
0.284274
0.269689
0.255117
0.240555
0.226004
0.211461
0.196926
0.182399
0.167877
0.15336
0.138848
0.124339
0.109833
0.0953298
0.0808282
0.066328
0.051829
0.0373309
0.0228334
0.00833642
-0.00616025
-0.0206567
-0.0351528
-0.0496488
-0.0641447
-0.0786405
-0.0931363
-0.107632
-0.122128
-0.136624
-0.151119
-0.165615
-0.180111
-0.194607
-0.209103
-0.223598
-0.238094
-0.25259
-0.267084
0.267084
1.48648
1.48648
1.43644
1.38772
1.3412
1.29777
1.25803
1.22204
1.18945
1.15977
1.13246
1.10706
1.08317
1.06049
1.03879
1.01788
0.99764
0.977965
0.958775
0.940008
0.921614
0.903552
0.885789
0.868295
0.851045
0.834016
0.81719
0.800549
0.784077
0.767761
0.751588
0.735546
0.719625
0.703815
0.688107
0.672494
0.656969
0.641524
0.626153
0.61085
0.595611
0.580431
0.565305
0.550228
0.535198
0.520211
0.505263
0.490352
0.475475
0.460629
0.445811
0.431021
0.416257
0.401515
0.386796
0.372097
0.357418
0.342757
0.328113
0.313485
0.298873
0.284275
0.26969
0.255117
0.240556
0.226004
0.211461
0.196927
0.182399
0.167877
0.15336
0.138848
0.124339
0.109833
0.0953298
0.0808282
0.066328
0.051829
0.0373309
0.0228334
0.00833641
-0.00616026
-0.0206567
-0.0351528
-0.0496488
-0.0641447
-0.0786405
-0.0931363
-0.107632
-0.122128
-0.136624
-0.151119
-0.165615
-0.180111
-0.194607
-0.209103
-0.223598
-0.238094
-0.25259
-0.267084
0.267084
1.47289
1.47289
1.43437
1.38826
1.34232
1.29896
1.2591
1.22293
1.19016
1.16031
1.13287
1.10737
1.08341
1.06067
1.03892
1.01799
0.997729
0.978037
0.958834
0.940058
0.921657
0.90359
0.885822
0.868324
0.85107
0.834039
0.81721
0.800567
0.784094
0.767776
0.751601
0.735558
0.719636
0.703825
0.688116
0.672503
0.656976
0.64153
0.626159
0.610856
0.595617
0.580436
0.565309
0.550233
0.535202
0.520215
0.505267
0.490355
0.475477
0.460631
0.445814
0.431024
0.416259
0.401517
0.386797
0.372098
0.357419
0.342758
0.328114
0.313486
0.298874
0.284276
0.269691
0.255118
0.240556
0.226004
0.211462
0.196927
0.182399
0.167877
0.153361
0.138848
0.124339
0.109833
0.0953298
0.0808282
0.066328
0.051829
0.0373309
0.0228334
0.0083364
-0.00616026
-0.0206566
-0.0351528
-0.0496488
-0.0641447
-0.0786405
-0.0931363
-0.107632
-0.122128
-0.136624
-0.151119
-0.165615
-0.180111
-0.194607
-0.209103
-0.223598
-0.238094
-0.252589
-0.267084
0.267084
1.46539
1.46539
1.43289
1.38863
1.34317
1.29988
1.25995
1.22365
1.19075
1.16078
1.13324
1.10765
1.08363
1.06084
1.03906
1.0181
0.99782
0.978113
0.958899
0.940113
0.921704
0.903631
0.885858
0.868356
0.851098
0.834064
0.817233
0.800587
0.784112
0.767792
0.751616
0.735571
0.719648
0.703836
0.688127
0.672512
0.656985
0.641538
0.626166
0.610863
0.595623
0.580441
0.565314
0.550237
0.535207
0.520219
0.50527
0.490358
0.47548
0.460634
0.445816
0.431026
0.416261
0.401519
0.386799
0.3721
0.357421
0.342759
0.328115
0.313488
0.298875
0.284277
0.269692
0.255119
0.240557
0.226005
0.211462
0.196927
0.182399
0.167878
0.153361
0.138848
0.124339
0.109834
0.09533
0.0808283
0.0663281
0.0518291
0.0373309
0.0228334
0.00833642
-0.00616025
-0.0206566
-0.0351528
-0.0496488
-0.0641447
-0.0786405
-0.0931364
-0.107632
-0.122128
-0.136624
-0.151119
-0.165615
-0.180111
-0.194607
-0.209103
-0.223598
-0.238094
-0.252589
-0.267084
0.267084
1.46301
1.46301
1.43239
1.38878
1.34349
1.30022
1.26027
1.22393
1.19098
1.16097
1.13339
1.10777
1.08372
1.06092
1.03912
1.01815
0.997861
0.978148
0.958928
0.940139
0.921727
0.903651
0.885875
0.868371
0.851112
0.834076
0.817244
0.800597
0.784121
0.767801
0.751623
0.735578
0.719654
0.703841
0.688132
0.672517
0.656989
0.641542
0.62617
0.610866
0.595626
0.580444
0.565317
0.55024
0.535209
0.520221
0.505272
0.49036
0.475482
0.460635
0.445818
0.431027
0.416262
0.40152
0.3868
0.372101
0.357422
0.34276
0.328116
0.313488
0.298876
0.284277
0.269692
0.255119
0.240557
0.226005
0.211463
0.196928
0.1824
0.167878
0.153361
0.138849
0.12434
0.109834
0.0953301
0.0808284
0.0663282
0.0518291
0.037331
0.0228335
0.00833643
-0.00616024
-0.0206566
-0.0351528
-0.0496488
-0.0641447
-0.0786405
-0.0931364
-0.107632
-0.122128
-0.136624
-0.151119
-0.165615
-0.180111
-0.194607
-0.209103
-0.223598
-0.238094
-0.252588
-0.267084
0.267084
1.46539
1.46539
1.43289
1.38863
1.34317
1.29988
1.25995
1.22365
1.19075
1.16078
1.13324
1.10765
1.08363
1.06084
1.03906
1.0181
0.99782
0.978113
0.958899
0.940113
0.921704
0.903631
0.885858
0.868356
0.851098
0.834064
0.817233
0.800587
0.784112
0.767792
0.751616
0.735571
0.719648
0.703836
0.688127
0.672512
0.656985
0.641538
0.626166
0.610863
0.595623
0.580441
0.565314
0.550237
0.535207
0.520219
0.50527
0.490358
0.47548
0.460634
0.445816
0.431026
0.416261
0.401519
0.386799
0.3721
0.357421
0.342759
0.328115
0.313488
0.298875
0.284277
0.269692
0.255119
0.240557
0.226005
0.211462
0.196927
0.182399
0.167878
0.153361
0.138848
0.124339
0.109834
0.09533
0.0808283
0.0663281
0.0518291
0.0373309
0.0228334
0.00833641
-0.00616025
-0.0206566
-0.0351528
-0.0496488
-0.0641447
-0.0786405
-0.0931364
-0.107632
-0.122128
-0.136624
-0.151119
-0.165615
-0.180111
-0.194607
-0.209103
-0.223598
-0.238094
-0.252589
-0.267084
0.267084
1.47289
1.47289
1.43437
1.38826
1.34232
1.29896
1.2591
1.22293
1.19016
1.16031
1.13287
1.10737
1.08341
1.06067
1.03892
1.01799
0.997729
0.978037
0.958834
0.940058
0.921657
0.90359
0.885822
0.868324
0.85107
0.834039
0.81721
0.800567
0.784094
0.767776
0.751601
0.735558
0.719636
0.703825
0.688116
0.672503
0.656976
0.64153
0.626159
0.610856
0.595617
0.580436
0.565309
0.550233
0.535202
0.520215
0.505267
0.490355
0.475477
0.460631
0.445814
0.431024
0.416258
0.401517
0.386797
0.372098
0.357419
0.342758
0.328114
0.313486
0.298874
0.284276
0.269691
0.255118
0.240556
0.226004
0.211462
0.196927
0.182399
0.167877
0.153361
0.138848
0.124339
0.109833
0.0953299
0.0808282
0.0663281
0.051829
0.0373309
0.0228334
0.00833638
-0.00616026
-0.0206566
-0.0351528
-0.0496488
-0.0641447
-0.0786405
-0.0931364
-0.107632
-0.122128
-0.136624
-0.151119
-0.165615
-0.180111
-0.194607
-0.209103
-0.223598
-0.238094
-0.252589
-0.267084
0.267084
1.48648
1.48648
1.43644
1.38772
1.3412
1.29777
1.25803
1.22204
1.18945
1.15977
1.13246
1.10706
1.08317
1.06049
1.03879
1.01788
0.99764
0.977965
0.958775
0.940008
0.921614
0.903552
0.885789
0.868295
0.851045
0.834016
0.81719
0.800549
0.784077
0.767761
0.751588
0.735546
0.719625
0.703815
0.688107
0.672494
0.656969
0.641524
0.626153
0.61085
0.595611
0.580431
0.565305
0.550228
0.535198
0.520211
0.505263
0.490352
0.475475
0.460629
0.445811
0.431021
0.416257
0.401515
0.386796
0.372097
0.357418
0.342757
0.328113
0.313485
0.298873
0.284275
0.26969
0.255117
0.240556
0.226004
0.211461
0.196927
0.182399
0.167877
0.15336
0.138848
0.124339
0.109833
0.0953298
0.0808282
0.0663281
0.051829
0.0373309
0.0228334
0.00833638
-0.00616026
-0.0206566
-0.0351528
-0.0496488
-0.0641447
-0.0786405
-0.0931363
-0.107632
-0.122128
-0.136624
-0.151119
-0.165615
-0.180111
-0.194607
-0.209103
-0.223598
-0.238094
-0.25259
-0.267084
0.267084
1.50674
1.50674
1.43802
1.38732
1.34048
1.29704
1.25738
1.22149
1.18902
1.15943
1.1322
1.10685
1.08301
1.06036
1.03868
1.01779
0.997569
0.977904
0.958723
0.939962
0.921574
0.903517
0.885758
0.868267
0.851019
0.833993
0.817169
0.80053
0.78406
0.767746
0.751574
0.735533
0.719613
0.703804
0.688097
0.672485
0.65696
0.641516
0.626145
0.610844
0.595605
0.580425
0.5653
0.550224
0.535194
0.520207
0.50526
0.490349
0.475471
0.460626
0.445809
0.431019
0.416254
0.401513
0.386794
0.372095
0.357416
0.342755
0.328112
0.313484
0.298872
0.284274
0.269689
0.255117
0.240555
0.226004
0.211461
0.196926
0.182399
0.167877
0.15336
0.138848
0.124339
0.109833
0.0953299
0.0808282
0.0663281
0.051829
0.0373309
0.0228334
0.00833639
-0.00616025
-0.0206566
-0.0351527
-0.0496488
-0.0641447
-0.0786405
-0.0931363
-0.107632
-0.122128
-0.136624
-0.151119
-0.165615
-0.180111
-0.194607
-0.209103
-0.223598
-0.238094
-0.25259
-0.267084
0.267084
1.50674
1.50674
1.43802
1.38732
1.34048
1.29704
1.25738
1.22149
1.18902
1.15943
1.1322
1.10685
1.08301
1.06036
1.03868
1.01779
0.997569
0.977904
0.958723
0.939962
0.921574
0.903517
0.885758
0.868267
0.851019
0.833993
0.817169
0.80053
0.78406
0.767746
0.751574
0.735533
0.719613
0.703804
0.688097
0.672485
0.65696
0.641516
0.626145
0.610844
0.595605
0.580425
0.5653
0.550224
0.535194
0.520207
0.50526
0.490349
0.475471
0.460626
0.445809
0.431019
0.416254
0.401513
0.386794
0.372095
0.357416
0.342755
0.328112
0.313484
0.298872
0.284274
0.269689
0.255117
0.240555
0.226004
0.211461
0.196926
0.182399
0.167877
0.15336
0.138848
0.124339
0.109833
0.0953299
0.0808282
0.0663281
0.051829
0.0373309
0.0228334
0.00833639
-0.00616025
-0.0206566
-0.0351527
-0.0496488
-0.0641447
-0.0786405
-0.0931363
-0.107632
-0.122128
-0.136624
-0.151119
-0.165615
-0.180111
-0.194607
-0.209103
-0.223598
-0.238094
-0.25259
-0.267084
0.267084
