# vtk DataFile Version 2.0
FlowField
ASCII
DATASET STRUCTURED_GRID
DIMENSIONS 102 1 12 
POINTS 1224 double
0 0 0
0.3 0 0
0.6 0 0
0.9 0 0
1.2 0 0
1.5 0 0
1.8 0 0
2.1 0 0
2.4 0 0
2.7 0 0
3 0 0
3.3 0 0
3.6 0 0
3.9 0 0
4.2 0 0
4.5 0 0
4.8 0 0
5.1 0 0
5.4 0 0
5.7 0 0
6 0 0
6.3 0 0
6.6 0 0
6.9 0 0
7.2 0 0
7.5 0 0
7.8 0 0
8.1 0 0
8.4 0 0
8.7 0 0
9 0 0
9.3 0 0
9.6 0 0
9.9 0 0
10.2 0 0
10.5 0 0
10.8 0 0
11.1 0 0
11.4 0 0
11.7 0 0
12 0 0
12.3 0 0
12.6 0 0
12.9 0 0
13.2 0 0
13.5 0 0
13.8 0 0
14.1 0 0
14.4 0 0
14.7 0 0
15 0 0
15.3 0 0
15.6 0 0
15.9 0 0
16.2 0 0
16.5 0 0
16.8 0 0
17.1 0 0
17.4 0 0
17.7 0 0
18 0 0
18.3 0 0
18.6 0 0
18.9 0 0
19.2 0 0
19.5 0 0
19.8 0 0
20.1 0 0
20.4 0 0
20.7 0 0
21 0 0
21.3 0 0
21.6 0 0
21.9 0 0
22.2 0 0
22.5 0 0
22.8 0 0
23.1 0 0
23.4 0 0
23.7 0 0
24 0 0
24.3 0 0
24.6 0 0
24.9 0 0
25.2 0 0
25.5 0 0
25.8 0 0
26.1 0 0
26.4 0 0
26.7 0 0
27 0 0
27.3 0 0
27.6 0 0
27.9 0 0
28.2 0 0
28.5 0 0
28.8 0 0
29.1 0 0
29.4 0 0
29.7 0 0
30 0 0
30.3 0 0
0 0.1 0
0.3 0.1 0
0.6 0.1 0
0.9 0.1 0
1.2 0.1 0
1.5 0.1 0
1.8 0.1 0
2.1 0.1 0
2.4 0.1 0
2.7 0.1 0
3 0.1 0
3.3 0.1 0
3.6 0.1 0
3.9 0.1 0
4.2 0.1 0
4.5 0.1 0
4.8 0.1 0
5.1 0.1 0
5.4 0.1 0
5.7 0.1 0
6 0.1 0
6.3 0.1 0
6.6 0.1 0
6.9 0.1 0
7.2 0.1 0
7.5 0.1 0
7.8 0.1 0
8.1 0.1 0
8.4 0.1 0
8.7 0.1 0
9 0.1 0
9.3 0.1 0
9.6 0.1 0
9.9 0.1 0
10.2 0.1 0
10.5 0.1 0
10.8 0.1 0
11.1 0.1 0
11.4 0.1 0
11.7 0.1 0
12 0.1 0
12.3 0.1 0
12.6 0.1 0
12.9 0.1 0
13.2 0.1 0
13.5 0.1 0
13.8 0.1 0
14.1 0.1 0
14.4 0.1 0
14.7 0.1 0
15 0.1 0
15.3 0.1 0
15.6 0.1 0
15.9 0.1 0
16.2 0.1 0
16.5 0.1 0
16.8 0.1 0
17.1 0.1 0
17.4 0.1 0
17.7 0.1 0
18 0.1 0
18.3 0.1 0
18.6 0.1 0
18.9 0.1 0
19.2 0.1 0
19.5 0.1 0
19.8 0.1 0
20.1 0.1 0
20.4 0.1 0
20.7 0.1 0
21 0.1 0
21.3 0.1 0
21.6 0.1 0
21.9 0.1 0
22.2 0.1 0
22.5 0.1 0
22.8 0.1 0
23.1 0.1 0
23.4 0.1 0
23.7 0.1 0
24 0.1 0
24.3 0.1 0
24.6 0.1 0
24.9 0.1 0
25.2 0.1 0
25.5 0.1 0
25.8 0.1 0
26.1 0.1 0
26.4 0.1 0
26.7 0.1 0
27 0.1 0
27.3 0.1 0
27.6 0.1 0
27.9 0.1 0
28.2 0.1 0
28.5 0.1 0
28.8 0.1 0
29.1 0.1 0
29.4 0.1 0
29.7 0.1 0
30 0.1 0
30.3 0.1 0
0 0.2 0
0.3 0.2 0
0.6 0.2 0
0.9 0.2 0
1.2 0.2 0
1.5 0.2 0
1.8 0.2 0
2.1 0.2 0
2.4 0.2 0
2.7 0.2 0
3 0.2 0
3.3 0.2 0
3.6 0.2 0
3.9 0.2 0
4.2 0.2 0
4.5 0.2 0
4.8 0.2 0
5.1 0.2 0
5.4 0.2 0
5.7 0.2 0
6 0.2 0
6.3 0.2 0
6.6 0.2 0
6.9 0.2 0
7.2 0.2 0
7.5 0.2 0
7.8 0.2 0
8.1 0.2 0
8.4 0.2 0
8.7 0.2 0
9 0.2 0
9.3 0.2 0
9.6 0.2 0
9.9 0.2 0
10.2 0.2 0
10.5 0.2 0
10.8 0.2 0
11.1 0.2 0
11.4 0.2 0
11.7 0.2 0
12 0.2 0
12.3 0.2 0
12.6 0.2 0
12.9 0.2 0
13.2 0.2 0
13.5 0.2 0
13.8 0.2 0
14.1 0.2 0
14.4 0.2 0
14.7 0.2 0
15 0.2 0
15.3 0.2 0
15.6 0.2 0
15.9 0.2 0
16.2 0.2 0
16.5 0.2 0
16.8 0.2 0
17.1 0.2 0
17.4 0.2 0
17.7 0.2 0
18 0.2 0
18.3 0.2 0
18.6 0.2 0
18.9 0.2 0
19.2 0.2 0
19.5 0.2 0
19.8 0.2 0
20.1 0.2 0
20.4 0.2 0
20.7 0.2 0
21 0.2 0
21.3 0.2 0
21.6 0.2 0
21.9 0.2 0
22.2 0.2 0
22.5 0.2 0
22.8 0.2 0
23.1 0.2 0
23.4 0.2 0
23.7 0.2 0
24 0.2 0
24.3 0.2 0
24.6 0.2 0
24.9 0.2 0
25.2 0.2 0
25.5 0.2 0
25.8 0.2 0
26.1 0.2 0
26.4 0.2 0
26.7 0.2 0
27 0.2 0
27.3 0.2 0
27.6 0.2 0
27.9 0.2 0
28.2 0.2 0
28.5 0.2 0
28.8 0.2 0
29.1 0.2 0
29.4 0.2 0
29.7 0.2 0
30 0.2 0
30.3 0.2 0
0 0.3 0
0.3 0.3 0
0.6 0.3 0
0.9 0.3 0
1.2 0.3 0
1.5 0.3 0
1.8 0.3 0
2.1 0.3 0
2.4 0.3 0
2.7 0.3 0
3 0.3 0
3.3 0.3 0
3.6 0.3 0
3.9 0.3 0
4.2 0.3 0
4.5 0.3 0
4.8 0.3 0
5.1 0.3 0
5.4 0.3 0
5.7 0.3 0
6 0.3 0
6.3 0.3 0
6.6 0.3 0
6.9 0.3 0
7.2 0.3 0
7.5 0.3 0
7.8 0.3 0
8.1 0.3 0
8.4 0.3 0
8.7 0.3 0
9 0.3 0
9.3 0.3 0
9.6 0.3 0
9.9 0.3 0
10.2 0.3 0
10.5 0.3 0
10.8 0.3 0
11.1 0.3 0
11.4 0.3 0
11.7 0.3 0
12 0.3 0
12.3 0.3 0
12.6 0.3 0
12.9 0.3 0
13.2 0.3 0
13.5 0.3 0
13.8 0.3 0
14.1 0.3 0
14.4 0.3 0
14.7 0.3 0
15 0.3 0
15.3 0.3 0
15.6 0.3 0
15.9 0.3 0
16.2 0.3 0
16.5 0.3 0
16.8 0.3 0
17.1 0.3 0
17.4 0.3 0
17.7 0.3 0
18 0.3 0
18.3 0.3 0
18.6 0.3 0
18.9 0.3 0
19.2 0.3 0
19.5 0.3 0
19.8 0.3 0
20.1 0.3 0
20.4 0.3 0
20.7 0.3 0
21 0.3 0
21.3 0.3 0
21.6 0.3 0
21.9 0.3 0
22.2 0.3 0
22.5 0.3 0
22.8 0.3 0
23.1 0.3 0
23.4 0.3 0
23.7 0.3 0
24 0.3 0
24.3 0.3 0
24.6 0.3 0
24.9 0.3 0
25.2 0.3 0
25.5 0.3 0
25.8 0.3 0
26.1 0.3 0
26.4 0.3 0
26.7 0.3 0
27 0.3 0
27.3 0.3 0
27.6 0.3 0
27.9 0.3 0
28.2 0.3 0
28.5 0.3 0
28.8 0.3 0
29.1 0.3 0
29.4 0.3 0
29.7 0.3 0
30 0.3 0
30.3 0.3 0
0 0.4 0
0.3 0.4 0
0.6 0.4 0
0.9 0.4 0
1.2 0.4 0
1.5 0.4 0
1.8 0.4 0
2.1 0.4 0
2.4 0.4 0
2.7 0.4 0
3 0.4 0
3.3 0.4 0
3.6 0.4 0
3.9 0.4 0
4.2 0.4 0
4.5 0.4 0
4.8 0.4 0
5.1 0.4 0
5.4 0.4 0
5.7 0.4 0
6 0.4 0
6.3 0.4 0
6.6 0.4 0
6.9 0.4 0
7.2 0.4 0
7.5 0.4 0
7.8 0.4 0
8.1 0.4 0
8.4 0.4 0
8.7 0.4 0
9 0.4 0
9.3 0.4 0
9.6 0.4 0
9.9 0.4 0
10.2 0.4 0
10.5 0.4 0
10.8 0.4 0
11.1 0.4 0
11.4 0.4 0
11.7 0.4 0
12 0.4 0
12.3 0.4 0
12.6 0.4 0
12.9 0.4 0
13.2 0.4 0
13.5 0.4 0
13.8 0.4 0
14.1 0.4 0
14.4 0.4 0
14.7 0.4 0
15 0.4 0
15.3 0.4 0
15.6 0.4 0
15.9 0.4 0
16.2 0.4 0
16.5 0.4 0
16.8 0.4 0
17.1 0.4 0
17.4 0.4 0
17.7 0.4 0
18 0.4 0
18.3 0.4 0
18.6 0.4 0
18.9 0.4 0
19.2 0.4 0
19.5 0.4 0
19.8 0.4 0
20.1 0.4 0
20.4 0.4 0
20.7 0.4 0
21 0.4 0
21.3 0.4 0
21.6 0.4 0
21.9 0.4 0
22.2 0.4 0
22.5 0.4 0
22.8 0.4 0
23.1 0.4 0
23.4 0.4 0
23.7 0.4 0
24 0.4 0
24.3 0.4 0
24.6 0.4 0
24.9 0.4 0
25.2 0.4 0
25.5 0.4 0
25.8 0.4 0
26.1 0.4 0
26.4 0.4 0
26.7 0.4 0
27 0.4 0
27.3 0.4 0
27.6 0.4 0
27.9 0.4 0
28.2 0.4 0
28.5 0.4 0
28.8 0.4 0
29.1 0.4 0
29.4 0.4 0
29.7 0.4 0
30 0.4 0
30.3 0.4 0
0 0.5 0
0.3 0.5 0
0.6 0.5 0
0.9 0.5 0
1.2 0.5 0
1.5 0.5 0
1.8 0.5 0
2.1 0.5 0
2.4 0.5 0
2.7 0.5 0
3 0.5 0
3.3 0.5 0
3.6 0.5 0
3.9 0.5 0
4.2 0.5 0
4.5 0.5 0
4.8 0.5 0
5.1 0.5 0
5.4 0.5 0
5.7 0.5 0
6 0.5 0
6.3 0.5 0
6.6 0.5 0
6.9 0.5 0
7.2 0.5 0
7.5 0.5 0
7.8 0.5 0
8.1 0.5 0
8.4 0.5 0
8.7 0.5 0
9 0.5 0
9.3 0.5 0
9.6 0.5 0
9.9 0.5 0
10.2 0.5 0
10.5 0.5 0
10.8 0.5 0
11.1 0.5 0
11.4 0.5 0
11.7 0.5 0
12 0.5 0
12.3 0.5 0
12.6 0.5 0
12.9 0.5 0
13.2 0.5 0
13.5 0.5 0
13.8 0.5 0
14.1 0.5 0
14.4 0.5 0
14.7 0.5 0
15 0.5 0
15.3 0.5 0
15.6 0.5 0
15.9 0.5 0
16.2 0.5 0
16.5 0.5 0
16.8 0.5 0
17.1 0.5 0
17.4 0.5 0
17.7 0.5 0
18 0.5 0
18.3 0.5 0
18.6 0.5 0
18.9 0.5 0
19.2 0.5 0
19.5 0.5 0
19.8 0.5 0
20.1 0.5 0
20.4 0.5 0
20.7 0.5 0
21 0.5 0
21.3 0.5 0
21.6 0.5 0
21.9 0.5 0
22.2 0.5 0
22.5 0.5 0
22.8 0.5 0
23.1 0.5 0
23.4 0.5 0
23.7 0.5 0
24 0.5 0
24.3 0.5 0
24.6 0.5 0
24.9 0.5 0
25.2 0.5 0
25.5 0.5 0
25.8 0.5 0
26.1 0.5 0
26.4 0.5 0
26.7 0.5 0
27 0.5 0
27.3 0.5 0
27.6 0.5 0
27.9 0.5 0
28.2 0.5 0
28.5 0.5 0
28.8 0.5 0
29.1 0.5 0
29.4 0.5 0
29.7 0.5 0
30 0.5 0
30.3 0.5 0
0 0.6 0
0.3 0.6 0
0.6 0.6 0
0.9 0.6 0
1.2 0.6 0
1.5 0.6 0
1.8 0.6 0
2.1 0.6 0
2.4 0.6 0
2.7 0.6 0
3 0.6 0
3.3 0.6 0
3.6 0.6 0
3.9 0.6 0
4.2 0.6 0
4.5 0.6 0
4.8 0.6 0
5.1 0.6 0
5.4 0.6 0
5.7 0.6 0
6 0.6 0
6.3 0.6 0
6.6 0.6 0
6.9 0.6 0
7.2 0.6 0
7.5 0.6 0
7.8 0.6 0
8.1 0.6 0
8.4 0.6 0
8.7 0.6 0
9 0.6 0
9.3 0.6 0
9.6 0.6 0
9.9 0.6 0
10.2 0.6 0
10.5 0.6 0
10.8 0.6 0
11.1 0.6 0
11.4 0.6 0
11.7 0.6 0
12 0.6 0
12.3 0.6 0
12.6 0.6 0
12.9 0.6 0
13.2 0.6 0
13.5 0.6 0
13.8 0.6 0
14.1 0.6 0
14.4 0.6 0
14.7 0.6 0
15 0.6 0
15.3 0.6 0
15.6 0.6 0
15.9 0.6 0
16.2 0.6 0
16.5 0.6 0
16.8 0.6 0
17.1 0.6 0
17.4 0.6 0
17.7 0.6 0
18 0.6 0
18.3 0.6 0
18.6 0.6 0
18.9 0.6 0
19.2 0.6 0
19.5 0.6 0
19.8 0.6 0
20.1 0.6 0
20.4 0.6 0
20.7 0.6 0
21 0.6 0
21.3 0.6 0
21.6 0.6 0
21.9 0.6 0
22.2 0.6 0
22.5 0.6 0
22.8 0.6 0
23.1 0.6 0
23.4 0.6 0
23.7 0.6 0
24 0.6 0
24.3 0.6 0
24.6 0.6 0
24.9 0.6 0
25.2 0.6 0
25.5 0.6 0
25.8 0.6 0
26.1 0.6 0
26.4 0.6 0
26.7 0.6 0
27 0.6 0
27.3 0.6 0
27.6 0.6 0
27.9 0.6 0
28.2 0.6 0
28.5 0.6 0
28.8 0.6 0
29.1 0.6 0
29.4 0.6 0
29.7 0.6 0
30 0.6 0
30.3 0.6 0
0 0.7 0
0.3 0.7 0
0.6 0.7 0
0.9 0.7 0
1.2 0.7 0
1.5 0.7 0
1.8 0.7 0
2.1 0.7 0
2.4 0.7 0
2.7 0.7 0
3 0.7 0
3.3 0.7 0
3.6 0.7 0
3.9 0.7 0
4.2 0.7 0
4.5 0.7 0
4.8 0.7 0
5.1 0.7 0
5.4 0.7 0
5.7 0.7 0
6 0.7 0
6.3 0.7 0
6.6 0.7 0
6.9 0.7 0
7.2 0.7 0
7.5 0.7 0
7.8 0.7 0
8.1 0.7 0
8.4 0.7 0
8.7 0.7 0
9 0.7 0
9.3 0.7 0
9.6 0.7 0
9.9 0.7 0
10.2 0.7 0
10.5 0.7 0
10.8 0.7 0
11.1 0.7 0
11.4 0.7 0
11.7 0.7 0
12 0.7 0
12.3 0.7 0
12.6 0.7 0
12.9 0.7 0
13.2 0.7 0
13.5 0.7 0
13.8 0.7 0
14.1 0.7 0
14.4 0.7 0
14.7 0.7 0
15 0.7 0
15.3 0.7 0
15.6 0.7 0
15.9 0.7 0
16.2 0.7 0
16.5 0.7 0
16.8 0.7 0
17.1 0.7 0
17.4 0.7 0
17.7 0.7 0
18 0.7 0
18.3 0.7 0
18.6 0.7 0
18.9 0.7 0
19.2 0.7 0
19.5 0.7 0
19.8 0.7 0
20.1 0.7 0
20.4 0.7 0
20.7 0.7 0
21 0.7 0
21.3 0.7 0
21.6 0.7 0
21.9 0.7 0
22.2 0.7 0
22.5 0.7 0
22.8 0.7 0
23.1 0.7 0
23.4 0.7 0
23.7 0.7 0
24 0.7 0
24.3 0.7 0
24.6 0.7 0
24.9 0.7 0
25.2 0.7 0
25.5 0.7 0
25.8 0.7 0
26.1 0.7 0
26.4 0.7 0
26.7 0.7 0
27 0.7 0
27.3 0.7 0
27.6 0.7 0
27.9 0.7 0
28.2 0.7 0
28.5 0.7 0
28.8 0.7 0
29.1 0.7 0
29.4 0.7 0
29.7 0.7 0
30 0.7 0
30.3 0.7 0
0 0.8 0
0.3 0.8 0
0.6 0.8 0
0.9 0.8 0
1.2 0.8 0
1.5 0.8 0
1.8 0.8 0
2.1 0.8 0
2.4 0.8 0
2.7 0.8 0
3 0.8 0
3.3 0.8 0
3.6 0.8 0
3.9 0.8 0
4.2 0.8 0
4.5 0.8 0
4.8 0.8 0
5.1 0.8 0
5.4 0.8 0
5.7 0.8 0
6 0.8 0
6.3 0.8 0
6.6 0.8 0
6.9 0.8 0
7.2 0.8 0
7.5 0.8 0
7.8 0.8 0
8.1 0.8 0
8.4 0.8 0
8.7 0.8 0
9 0.8 0
9.3 0.8 0
9.6 0.8 0
9.9 0.8 0
10.2 0.8 0
10.5 0.8 0
10.8 0.8 0
11.1 0.8 0
11.4 0.8 0
11.7 0.8 0
12 0.8 0
12.3 0.8 0
12.6 0.8 0
12.9 0.8 0
13.2 0.8 0
13.5 0.8 0
13.8 0.8 0
14.1 0.8 0
14.4 0.8 0
14.7 0.8 0
15 0.8 0
15.3 0.8 0
15.6 0.8 0
15.9 0.8 0
16.2 0.8 0
16.5 0.8 0
16.8 0.8 0
17.1 0.8 0
17.4 0.8 0
17.7 0.8 0
18 0.8 0
18.3 0.8 0
18.6 0.8 0
18.9 0.8 0
19.2 0.8 0
19.5 0.8 0
19.8 0.8 0
20.1 0.8 0
20.4 0.8 0
20.7 0.8 0
21 0.8 0
21.3 0.8 0
21.6 0.8 0
21.9 0.8 0
22.2 0.8 0
22.5 0.8 0
22.8 0.8 0
23.1 0.8 0
23.4 0.8 0
23.7 0.8 0
24 0.8 0
24.3 0.8 0
24.6 0.8 0
24.9 0.8 0
25.2 0.8 0
25.5 0.8 0
25.8 0.8 0
26.1 0.8 0
26.4 0.8 0
26.7 0.8 0
27 0.8 0
27.3 0.8 0
27.6 0.8 0
27.9 0.8 0
28.2 0.8 0
28.5 0.8 0
28.8 0.8 0
29.1 0.8 0
29.4 0.8 0
29.7 0.8 0
30 0.8 0
30.3 0.8 0
0 0.9 0
0.3 0.9 0
0.6 0.9 0
0.9 0.9 0
1.2 0.9 0
1.5 0.9 0
1.8 0.9 0
2.1 0.9 0
2.4 0.9 0
2.7 0.9 0
3 0.9 0
3.3 0.9 0
3.6 0.9 0
3.9 0.9 0
4.2 0.9 0
4.5 0.9 0
4.8 0.9 0
5.1 0.9 0
5.4 0.9 0
5.7 0.9 0
6 0.9 0
6.3 0.9 0
6.6 0.9 0
6.9 0.9 0
7.2 0.9 0
7.5 0.9 0
7.8 0.9 0
8.1 0.9 0
8.4 0.9 0
8.7 0.9 0
9 0.9 0
9.3 0.9 0
9.6 0.9 0
9.9 0.9 0
10.2 0.9 0
10.5 0.9 0
10.8 0.9 0
11.1 0.9 0
11.4 0.9 0
11.7 0.9 0
12 0.9 0
12.3 0.9 0
12.6 0.9 0
12.9 0.9 0
13.2 0.9 0
13.5 0.9 0
13.8 0.9 0
14.1 0.9 0
14.4 0.9 0
14.7 0.9 0
15 0.9 0
15.3 0.9 0
15.6 0.9 0
15.9 0.9 0
16.2 0.9 0
16.5 0.9 0
16.8 0.9 0
17.1 0.9 0
17.4 0.9 0
17.7 0.9 0
18 0.9 0
18.3 0.9 0
18.6 0.9 0
18.9 0.9 0
19.2 0.9 0
19.5 0.9 0
19.8 0.9 0
20.1 0.9 0
20.4 0.9 0
20.7 0.9 0
21 0.9 0
21.3 0.9 0
21.6 0.9 0
21.9 0.9 0
22.2 0.9 0
22.5 0.9 0
22.8 0.9 0
23.1 0.9 0
23.4 0.9 0
23.7 0.9 0
24 0.9 0
24.3 0.9 0
24.6 0.9 0
24.9 0.9 0
25.2 0.9 0
25.5 0.9 0
25.8 0.9 0
26.1 0.9 0
26.4 0.9 0
26.7 0.9 0
27 0.9 0
27.3 0.9 0
27.6 0.9 0
27.9 0.9 0
28.2 0.9 0
28.5 0.9 0
28.8 0.9 0
29.1 0.9 0
29.4 0.9 0
29.7 0.9 0
30 0.9 0
30.3 0.9 0
0 1 0
0.3 1 0
0.6 1 0
0.9 1 0
1.2 1 0
1.5 1 0
1.8 1 0
2.1 1 0
2.4 1 0
2.7 1 0
3 1 0
3.3 1 0
3.6 1 0
3.9 1 0
4.2 1 0
4.5 1 0
4.8 1 0
5.1 1 0
5.4 1 0
5.7 1 0
6 1 0
6.3 1 0
6.6 1 0
6.9 1 0
7.2 1 0
7.5 1 0
7.8 1 0
8.1 1 0
8.4 1 0
8.7 1 0
9 1 0
9.3 1 0
9.6 1 0
9.9 1 0
10.2 1 0
10.5 1 0
10.8 1 0
11.1 1 0
11.4 1 0
11.7 1 0
12 1 0
12.3 1 0
12.6 1 0
12.9 1 0
13.2 1 0
13.5 1 0
13.8 1 0
14.1 1 0
14.4 1 0
14.7 1 0
15 1 0
15.3 1 0
15.6 1 0
15.9 1 0
16.2 1 0
16.5 1 0
16.8 1 0
17.1 1 0
17.4 1 0
17.7 1 0
18 1 0
18.3 1 0
18.6 1 0
18.9 1 0
19.2 1 0
19.5 1 0
19.8 1 0
20.1 1 0
20.4 1 0
20.7 1 0
21 1 0
21.3 1 0
21.6 1 0
21.9 1 0
22.2 1 0
22.5 1 0
22.8 1 0
23.1 1 0
23.4 1 0
23.7 1 0
24 1 0
24.3 1 0
24.6 1 0
24.9 1 0
25.2 1 0
25.5 1 0
25.8 1 0
26.1 1 0
26.4 1 0
26.7 1 0
27 1 0
27.3 1 0
27.6 1 0
27.9 1 0
28.2 1 0
28.5 1 0
28.8 1 0
29.1 1 0
29.4 1 0
29.7 1 0
30 1 0
30.3 1 0
0 1.1 0
0.3 1.1 0
0.6 1.1 0
0.9 1.1 0
1.2 1.1 0
1.5 1.1 0
1.8 1.1 0
2.1 1.1 0
2.4 1.1 0
2.7 1.1 0
3 1.1 0
3.3 1.1 0
3.6 1.1 0
3.9 1.1 0
4.2 1.1 0
4.5 1.1 0
4.8 1.1 0
5.1 1.1 0
5.4 1.1 0
5.7 1.1 0
6 1.1 0
6.3 1.1 0
6.6 1.1 0
6.9 1.1 0
7.2 1.1 0
7.5 1.1 0
7.8 1.1 0
8.1 1.1 0
8.4 1.1 0
8.7 1.1 0
9 1.1 0
9.3 1.1 0
9.6 1.1 0
9.9 1.1 0
10.2 1.1 0
10.5 1.1 0
10.8 1.1 0
11.1 1.1 0
11.4 1.1 0
11.7 1.1 0
12 1.1 0
12.3 1.1 0
12.6 1.1 0
12.9 1.1 0
13.2 1.1 0
13.5 1.1 0
13.8 1.1 0
14.1 1.1 0
14.4 1.1 0
14.7 1.1 0
15 1.1 0
15.3 1.1 0
15.6 1.1 0
15.9 1.1 0
16.2 1.1 0
16.5 1.1 0
16.8 1.1 0
17.1 1.1 0
17.4 1.1 0
17.7 1.1 0
18 1.1 0
18.3 1.1 0
18.6 1.1 0
18.9 1.1 0
19.2 1.1 0
19.5 1.1 0
19.8 1.1 0
20.1 1.1 0
20.4 1.1 0
20.7 1.1 0
21 1.1 0
21.3 1.1 0
21.6 1.1 0
21.9 1.1 0
22.2 1.1 0
22.5 1.1 0
22.8 1.1 0
23.1 1.1 0
23.4 1.1 0
23.7 1.1 0
24 1.1 0
24.3 1.1 0
24.6 1.1 0
24.9 1.1 0
25.2 1.1 0
25.5 1.1 0
25.8 1.1 0
26.1 1.1 0
26.4 1.1 0
26.7 1.1 0
27 1.1 0
27.3 1.1 0
27.6 1.1 0
27.9 1.1 0
28.2 1.1 0
28.5 1.1 0
28.8 1.1 0
29.1 1.1 0
29.4 1.1 0
29.7 1.1 0
30 1.1 0
30.3 1.1 0

POINT_DATA 1224

SCALARS v double
LOOKUP_TABLE default
0
0
0
0
0
0
0
0
0
0
0
0
0
0
0
0
0
0
0
0
0
0
0
0
0
0
0
0
0
0
0
0
0
0
0
0
0
0
0
0
0
0
0
0
0
0
0
0
0
0
0
0
0
0
0
0
0
0
0
0
0
0
0
0
0
0
0
0
0
0
0
0
0
0
0
0
0
0
0
0
0
0
0
0
0
0
0
0
0
0
0
0
0
0
0
0
0
0
0
0
0
0
-0.0630253
0.0630253
0.0557271
0.0385112
0.0243783
0.0149415
0.00927631
0.00604182
0.00419938
0.00310898
0.00242019
0.00195188
0.00161172
0.00135183
0.00114612
0.000979218
0.000841469
0.000726383
0.000629298
0.000546769
0.000476224
0.000415613
0.000363278
0.000317953
0.00027861
0.000244361
0.000214473
0.000188355
0.000165508
0.000145497
0.000127948
0.000112551
9.90282e-05
8.71463e-05
7.67074e-05
6.75279e-05
5.94521e-05
5.23473e-05
4.60954e-05
4.05937e-05
3.57511e-05
3.14863e-05
2.77315e-05
2.44262e-05
2.15152e-05
1.89512e-05
1.6693e-05
1.47045e-05
1.2953e-05
1.14102e-05
1.00512e-05
8.85411e-06
7.79967e-06
6.87091e-06
6.0528e-06
5.33203e-06
4.69709e-06
4.13784e-06
3.6452e-06
3.21119e-06
2.82883e-06
2.49202e-06
2.19534e-06
1.93397e-06
1.70371e-06
1.50088e-06
1.3222e-06
1.16479e-06
1.02611e-06
9.03951e-07
7.96344e-07
7.0155e-07
6.18029e-07
5.4445e-07
4.79641e-07
4.22548e-07
3.72251e-07
3.27945e-07
2.88911e-07
2.54524e-07
2.24226e-07
1.9753e-07
1.74003e-07
1.53263e-07
1.34974e-07
1.18838e-07
1.04593e-07
9.20082e-08
8.08807e-08
7.10324e-08
6.23081e-08
5.45737e-08
4.77111e-08
4.16201e-08
3.62075e-08
3.14234e-08
2.70871e-08
2.35467e-08
1.88826e-08
1.79031e-08
-1.70038e-10
-1.70038e-10
-0.051614
0.051614
0.0605197
0.0485979
0.0351317
0.0247329
0.0176652
0.0130517
0.0100098
0.00792701
0.00643316
0.00531476
0.00444813
0.00375907
0.0032006
0.00274127
0.0023591
0.0020382
0.00176664
0.00153536
0.00133735
0.00116703
0.00101994
0.000892545
0.00078191
0.000685592
0.000601577
0.000528187
0.000463998
0.000407787
0.000358516
0.000315296
0.000277354
0.000244033
0.000214759
0.000189023
0.000166392
0.000146488
0.000128977
0.000113569
0.000100008
8.80708e-05
7.75628e-05
6.83119e-05
6.01659e-05
5.29928e-05
4.66762e-05
4.11138e-05
3.62147e-05
3.18999e-05
2.80996e-05
2.47523e-05
2.1804e-05
1.92071e-05
1.69196e-05
1.49045e-05
1.31296e-05
1.15661e-05
1.01889e-05
8.9756e-06
7.90683e-06
6.96537e-06
6.13604e-06
5.40545e-06
4.76185e-06
4.1949e-06
3.69546e-06
3.25548e-06
2.86789e-06
2.52646e-06
2.22568e-06
1.96071e-06
1.72728e-06
1.52165e-06
1.34051e-06
1.18093e-06
1.04035e-06
9.16514e-07
8.07414e-07
7.11297e-07
6.2661e-07
5.51987e-07
4.86217e-07
4.28235e-07
3.77098e-07
3.31976e-07
2.92137e-07
2.56936e-07
2.25807e-07
1.98254e-07
1.73844e-07
1.52202e-07
1.32999e-07
1.15955e-07
1.00817e-07
8.74169e-08
7.53793e-08
6.52223e-08
5.33402e-08
4.91704e-08
-5.64721e-10
-5.64721e-10
-0.031689
0.031689
0.0439855
0.0385943
0.0299835
0.0226205
0.0172756
0.0135694
0.0109667
0.00906481
0.00761232
0.00646149
0.00552521
0.00474975
0.00409958
0.00354967
0.00308153
0.00268096
0.00233673
0.00203986
0.00178309
0.00156037
0.00136678
0.0011982
0.00105115
0.000922694
0.00081034
0.000711981
0.000625797
0.000550218
0.000483897
0.000425671
0.000374522
0.000329579
0.000290073
0.000255332
0.000224776
0.000197897
0.000174246
0.000153432
0.000135112
0.000118985
0.000104789
9.22899e-05
8.1284e-05
7.15927e-05
6.30586e-05
5.55432e-05
4.89241e-05
4.30946e-05
3.79603e-05
3.34381e-05
2.94549e-05
2.59465e-05
2.28562e-05
2.0134e-05
1.77362e-05
1.5624e-05
1.37635e-05
1.21245e-05
1.06807e-05
9.40895e-06
8.28863e-06
7.30171e-06
6.43232e-06
5.66647e-06
4.9918e-06
4.39747e-06
3.87391e-06
3.41271e-06
3.00641e-06
2.64848e-06
2.33317e-06
2.05541e-06
1.81072e-06
1.59517e-06
1.40527e-06
1.23799e-06
1.09061e-06
9.60775e-07
8.46377e-07
7.45572e-07
6.56728e-07
5.78403e-07
5.09328e-07
4.4838e-07
3.94572e-07
3.47033e-07
3.04998e-07
2.67797e-07
2.34846e-07
2.05635e-07
1.7972e-07
1.56722e-07
1.36302e-07
1.18215e-07
1.02022e-07
8.81966e-08
7.27406e-08
6.64997e-08
-7.42962e-10
-7.42962e-10
-0.0146344
0.0146344
0.022178
0.0203996
0.0164656
0.0128763
0.0101764
0.00824857
0.00685377
0.00580154
0.00497128
0.00429242
0.00372391
0.00324073
0.00282628
0.0024687
0.00215901
0.00189006
0.00165597
0.0014519
0.00127376
0.00111803
0.00098178
0.000862487
0.000757941
0.000666257
0.000585816
0.000515209
0.000453203
0.000398727
0.000350853
0.000308769
0.000271764
0.000239222
0.000210596
0.000185408
0.000163246
0.000143742
0.000126576
0.000111465
9.81619e-05
8.64499e-05
7.61385e-05
6.70587e-05
5.9063e-05
5.20221e-05
4.58216e-05
4.03609e-05
3.55513e-05
3.13154e-05
2.75845e-05
2.42985e-05
2.14041e-05
1.88546e-05
1.66089e-05
1.46308e-05
1.28884e-05
1.13535e-05
1.00015e-05
8.81047e-06
7.76134e-06
6.83717e-06
6.02306e-06
5.3059e-06
4.67414e-06
4.11762e-06
3.62737e-06
3.19549e-06
2.81504e-06
2.4799e-06
2.18466e-06
1.92457e-06
1.69545e-06
1.49361e-06
1.3158e-06
1.15916e-06
1.02117e-06
8.99604e-07
7.92506e-07
6.98148e-07
6.1501e-07
5.41748e-07
4.77177e-07
4.2025e-07
3.70045e-07
3.25747e-07
2.86639e-07
2.52088e-07
2.2154e-07
1.94507e-07
1.70564e-07
1.49341e-07
1.30516e-07
1.13811e-07
9.89829e-08
8.58477e-08
7.41112e-08
6.40458e-08
5.3039e-08
4.82995e-08
-4.84329e-10
-4.84329e-10
-2.16039e-08
2.16039e-08
-5.09882e-09
5.86163e-09
6.26073e-09
-1.23079e-08
-7.70588e-09
1.09427e-08
-3.33803e-09
-8.22869e-09
1.41387e-08
3.74323e-09
-1.44467e-08
2.95335e-09
1.09265e-08
-3.62249e-09
-3.10958e-09
2.33057e-09
-1.40004e-09
3.41454e-09
5.5725e-09
-3.91319e-09
-2.11722e-09
5.78343e-09
3.3339e-09
-6.08421e-10
-6.24923e-10
1.66253e-09
2.72228e-09
1.02214e-09
1.44442e-09
1.06813e-09
1.45428e-10
2.11597e-09
1.94418e-09
2.91501e-10
7.38888e-10
1.26699e-09
9.85202e-10
8.99897e-10
6.79979e-10
6.6419e-10
8.86308e-10
6.63024e-10
5.11204e-10
5.24602e-10
5.92322e-10
5.45925e-10
4.15353e-10
3.99379e-10
3.79898e-10
3.58205e-10
3.41784e-10
3.1577e-10
2.62455e-10
2.43029e-10
2.53163e-10
2.23375e-10
1.94346e-10
1.81213e-10
1.66191e-10
1.63873e-10
1.56232e-10
1.41783e-10
1.36613e-10
1.33453e-10
1.27217e-10
1.23396e-10
1.28618e-10
1.29934e-10
1.23977e-10
1.19584e-10
1.18296e-10
1.15874e-10
1.09665e-10
9.9708e-11
8.82418e-11
7.16195e-11
5.1312e-11
2.72392e-11
1.31262e-13
-3.09279e-11
-6.58822e-11
-1.04335e-10
-1.45674e-10
-1.89152e-10
-2.34188e-10
-2.80487e-10
-3.27384e-10
-3.73687e-10
-4.18379e-10
-4.61554e-10
-5.01729e-10
-5.36969e-10
-5.6498e-10
-5.82292e-10
-5.81611e-10
-5.57728e-10
-4.73385e-10
-3.66944e-10
9.98332e-11
9.98332e-11
0.0146343
-0.0146343
-0.022178
-0.0203996
-0.0164656
-0.0128763
-0.0101764
-0.00824855
-0.00685377
-0.00580156
-0.00497126
-0.00429241
-0.00372394
-0.00324073
-0.00282626
-0.0024687
-0.00215901
-0.00189005
-0.00165598
-0.0014519
-0.00127375
-0.00111803
-0.000981785
-0.000862479
-0.000757934
-0.000666256
-0.000585817
-0.000515207
-0.000453199
-0.000398725
-0.00035085
-0.000308767
-0.000271764
-0.000239219
-0.000210593
-0.000185407
-0.000163244
-0.00014374
-0.000126574
-0.000111463
-9.81605e-05
-8.64488e-05
-7.6137e-05
-6.70575e-05
-5.90621e-05
-5.20212e-05
-4.58206e-05
-4.03599e-05
-3.55505e-05
-3.13147e-05
-2.75839e-05
-2.42978e-05
-2.14034e-05
-1.8854e-05
-1.66084e-05
-1.46303e-05
-1.28879e-05
-1.13531e-05
-1.00011e-05
-8.81014e-06
-7.76104e-06
-6.83687e-06
-6.02278e-06
-5.30564e-06
-4.67389e-06
-4.11737e-06
-3.62713e-06
-3.19526e-06
-2.81481e-06
-2.47966e-06
-2.18443e-06
-1.92434e-06
-1.69523e-06
-1.49339e-06
-1.3156e-06
-1.15898e-06
-1.02101e-06
-8.99471e-07
-7.92409e-07
-6.98095e-07
-6.15007e-07
-5.41802e-07
-4.77294e-07
-4.20437e-07
-3.70307e-07
-3.26088e-07
-2.87062e-07
-2.52595e-07
-2.22132e-07
-1.95182e-07
-1.71321e-07
-1.50176e-07
-1.31422e-07
-1.14781e-07
-1.00003e-07
-8.68978e-08
-7.5158e-08
-6.50478e-08
-5.38824e-08
-4.89535e-08
6.72367e-10
6.72367e-10
0.031689
-0.031689
-0.0439855
-0.0385944
-0.0299835
-0.0226205
-0.0172756
-0.0135694
-0.0109667
-0.00906483
-0.00761231
-0.00646148
-0.00552523
-0.00474975
-0.00409957
-0.00354967
-0.00308153
-0.00268095
-0.00233673
-0.00203987
-0.00178308
-0.00156037
-0.00136678
-0.0011982
-0.00105115
-0.000922689
-0.00081034
-0.000711981
-0.000625795
-0.000550216
-0.000483895
-0.000425668
-0.000374522
-0.000329577
-0.000290071
-0.000255331
-0.000224775
-0.000197896
-0.000174245
-0.00015343
-0.000135111
-0.000118985
-0.000104788
-9.22889e-05
-8.12832e-05
-7.15921e-05
-6.3058e-05
-5.55425e-05
-4.89236e-05
-4.30941e-05
-3.79598e-05
-3.34376e-05
-2.94545e-05
-2.59461e-05
-2.28558e-05
-2.01337e-05
-1.77359e-05
-1.56237e-05
-1.37632e-05
-1.21242e-05
-1.06805e-05
-9.40873e-06
-8.28841e-06
-7.30151e-06
-6.43213e-06
-5.66627e-06
-4.99162e-06
-4.39729e-06
-3.87373e-06
-3.41252e-06
-3.00623e-06
-2.6483e-06
-2.333e-06
-2.05524e-06
-1.81056e-06
-1.59502e-06
-1.40514e-06
-1.23788e-06
-1.09053e-06
-9.60727e-07
-8.46368e-07
-7.45606e-07
-6.56808e-07
-5.78536e-07
-5.09516e-07
-4.48626e-07
-3.94878e-07
-3.474e-07
-3.05427e-07
-2.68287e-07
-2.35394e-07
-2.06238e-07
-1.80374e-07
-1.5742e-07
-1.37034e-07
-1.18965e-07
-1.02764e-07
-8.88989e-08
-7.33113e-08
-6.69243e-08
8.98129e-10
8.98129e-10
0.051614
-0.051614
-0.0605197
-0.0485979
-0.0351317
-0.0247329
-0.0176652
-0.0130517
-0.0100098
-0.00792703
-0.00643317
-0.00531474
-0.00444813
-0.00375908
-0.0032006
-0.00274127
-0.0023591
-0.00203819
-0.00176664
-0.00153537
-0.00133735
-0.00116702
-0.00101995
-0.000892556
-0.000781907
-0.000685584
-0.000601576
-0.00052819
-0.000463999
-0.000407786
-0.000358513
-0.000315293
-0.000277354
-0.000244034
-0.000214758
-0.000189021
-0.000166391
-0.000146488
-0.000128977
-0.000113568
-0.000100007
-8.80706e-05
-7.75626e-05
-6.83112e-05
-6.01653e-05
-5.29925e-05
-4.6676e-05
-4.11134e-05
-3.62144e-05
-3.18996e-05
-2.80993e-05
-2.47521e-05
-2.18038e-05
-1.92068e-05
-1.69193e-05
-1.49043e-05
-1.31294e-05
-1.15659e-05
-1.01887e-05
-8.97544e-06
-7.90671e-06
-6.96524e-06
-6.1359e-06
-5.40532e-06
-4.76173e-06
-4.19478e-06
-3.69534e-06
-3.25536e-06
-2.86777e-06
-2.52634e-06
-2.22556e-06
-1.96058e-06
-1.72717e-06
-1.52154e-06
-1.3404e-06
-1.18083e-06
-1.04026e-06
-9.16434e-07
-8.0735e-07
-7.11252e-07
-6.26587e-07
-5.51987e-07
-4.86244e-07
-4.2829e-07
-3.77183e-07
-3.32092e-07
-2.92285e-07
-2.57117e-07
-2.2602e-07
-1.98499e-07
-1.74119e-07
-1.52505e-07
-1.33326e-07
-1.16303e-07
-1.01181e-07
-8.7786e-08
-7.57369e-08
-6.55502e-08
-5.35803e-08
-4.93165e-08
6.80925e-10
6.80925e-10
0.0630253
-0.0630253
-0.0557271
-0.0385112
-0.0243784
-0.0149415
-0.0092763
-0.00604181
-0.00419936
-0.00310899
-0.00242022
-0.00195187
-0.00161171
-0.00135185
-0.00114612
-0.000979214
-0.000841465
-0.000726375
-0.000629295
-0.000546784
-0.000476228
-0.000415595
-0.000363275
-0.000317967
-0.000278613
-0.000244353
-0.000214469
-0.000188358
-0.000165511
-0.000145496
-0.000127947
-0.000112549
-9.90275e-05
-8.71487e-05
-7.67078e-05
-6.75262e-05
-5.94513e-05
-5.23477e-05
-4.60959e-05
-4.05934e-05
-3.57502e-05
-3.14862e-05
-2.77319e-05
-2.44259e-05
-2.15147e-05
-1.8951e-05
-1.66931e-05
-1.47044e-05
-1.29528e-05
-1.141e-05
-1.0051e-05
-8.85405e-06
-7.79963e-06
-6.87081e-06
-6.05264e-06
-5.33193e-06
-4.69706e-06
-4.13777e-06
-3.64509e-06
-3.21109e-06
-2.82876e-06
-2.49196e-06
-2.19527e-06
-1.9339e-06
-1.70364e-06
-1.50081e-06
-1.32212e-06
-1.16471e-06
-1.02604e-06
-9.03888e-07
-7.96269e-07
-7.01466e-07
-6.17954e-07
-5.44384e-07
-4.79574e-07
-4.22481e-07
-3.72187e-07
-3.27883e-07
-2.88854e-07
-2.54472e-07
-2.24181e-07
-1.97492e-07
-1.73973e-07
-1.53242e-07
-1.34961e-07
-1.18833e-07
-1.04597e-07
-9.20204e-08
-8.0901e-08
-7.10607e-08
-6.23445e-08
-5.46163e-08
-4.77589e-08
-4.1672e-08
-3.62613e-08
-3.14758e-08
-2.71314e-08
-2.35771e-08
-1.88761e-08
-1.78595e-08
2.53967e-10
2.53967e-10
0
0
0
0
0
0
0
0
0
0
0
0
0
0
0
0
0
0
0
0
0
0
0
0
0
0
0
0
0
0
0
0
0
0
0
0
0
0
0
0
0
0
0
0
0
0
0
0
0
0
0
0
0
0
0
0
0
0
0
0
0
0
0
0
0
0
0
0
0
0
0
0
0
0
0
0
0
0
0
0
0
0
0
0
0
0
0
0
0
0
0
0
0
0
0
0
0
0
0
0
0
0
0
0
0
0
0
0
0
0
0
0
0
0
0
0
0
0
0
0
0
0
0
0
0
0
0
0
0
0
0
0
0
0
0
0
0
0
0
0
0
0
0
0
0
0
0
0
0
0
0
0
0
0
0
0
0
0
0
0
0
0
0
0
0
0
0
0
0
0
0
0
0
0
0
0
0
0
0
0
0
0
0
0
0
0
0
0
0
0
0
0
0
0
0
0
0
0
0
0
0
0
0
0
