# vtk DataFile Version 2.0
FlowField
ASCII
DATASET STRUCTURED_GRID
DIMENSIONS 101 11 1 
POINTS 1111 double
0 0 0
0.3 0 0
0.6 0 0
0.9 0 0
1.2 0 0
1.5 0 0
1.8 0 0
2.1 0 0
2.4 0 0
2.7 0 0
3 0 0
3.3 0 0
3.6 0 0
3.9 0 0
4.2 0 0
4.5 0 0
4.8 0 0
5.1 0 0
5.4 0 0
5.7 0 0
6 0 0
6.3 0 0
6.6 0 0
6.9 0 0
7.2 0 0
7.5 0 0
7.8 0 0
8.1 0 0
8.4 0 0
8.7 0 0
9 0 0
9.3 0 0
9.6 0 0
9.9 0 0
10.2 0 0
10.5 0 0
10.8 0 0
11.1 0 0
11.4 0 0
11.7 0 0
12 0 0
12.3 0 0
12.6 0 0
12.9 0 0
13.2 0 0
13.5 0 0
13.8 0 0
14.1 0 0
14.4 0 0
14.7 0 0
15 0 0
15.3 0 0
15.6 0 0
15.9 0 0
16.2 0 0
16.5 0 0
16.8 0 0
17.1 0 0
17.4 0 0
17.7 0 0
18 0 0
18.3 0 0
18.6 0 0
18.9 0 0
19.2 0 0
19.5 0 0
19.8 0 0
20.1 0 0
20.4 0 0
20.7 0 0
21 0 0
21.3 0 0
21.6 0 0
21.9 0 0
22.2 0 0
22.5 0 0
22.8 0 0
23.1 0 0
23.4 0 0
23.7 0 0
24 0 0
24.3 0 0
24.6 0 0
24.9 0 0
25.2 0 0
25.5 0 0
25.8 0 0
26.1 0 0
26.4 0 0
26.7 0 0
27 0 0
27.3 0 0
27.6 0 0
27.9 0 0
28.2 0 0
28.5 0 0
28.8 0 0
29.1 0 0
29.4 0 0
29.7 0 0
30 0 0
0 0.1 0
0.3 0.1 0
0.6 0.1 0
0.9 0.1 0
1.2 0.1 0
1.5 0.1 0
1.8 0.1 0
2.1 0.1 0
2.4 0.1 0
2.7 0.1 0
3 0.1 0
3.3 0.1 0
3.6 0.1 0
3.9 0.1 0
4.2 0.1 0
4.5 0.1 0
4.8 0.1 0
5.1 0.1 0
5.4 0.1 0
5.7 0.1 0
6 0.1 0
6.3 0.1 0
6.6 0.1 0
6.9 0.1 0
7.2 0.1 0
7.5 0.1 0
7.8 0.1 0
8.1 0.1 0
8.4 0.1 0
8.7 0.1 0
9 0.1 0
9.3 0.1 0
9.6 0.1 0
9.9 0.1 0
10.2 0.1 0
10.5 0.1 0
10.8 0.1 0
11.1 0.1 0
11.4 0.1 0
11.7 0.1 0
12 0.1 0
12.3 0.1 0
12.6 0.1 0
12.9 0.1 0
13.2 0.1 0
13.5 0.1 0
13.8 0.1 0
14.1 0.1 0
14.4 0.1 0
14.7 0.1 0
15 0.1 0
15.3 0.1 0
15.6 0.1 0
15.9 0.1 0
16.2 0.1 0
16.5 0.1 0
16.8 0.1 0
17.1 0.1 0
17.4 0.1 0
17.7 0.1 0
18 0.1 0
18.3 0.1 0
18.6 0.1 0
18.9 0.1 0
19.2 0.1 0
19.5 0.1 0
19.8 0.1 0
20.1 0.1 0
20.4 0.1 0
20.7 0.1 0
21 0.1 0
21.3 0.1 0
21.6 0.1 0
21.9 0.1 0
22.2 0.1 0
22.5 0.1 0
22.8 0.1 0
23.1 0.1 0
23.4 0.1 0
23.7 0.1 0
24 0.1 0
24.3 0.1 0
24.6 0.1 0
24.9 0.1 0
25.2 0.1 0
25.5 0.1 0
25.8 0.1 0
26.1 0.1 0
26.4 0.1 0
26.7 0.1 0
27 0.1 0
27.3 0.1 0
27.6 0.1 0
27.9 0.1 0
28.2 0.1 0
28.5 0.1 0
28.8 0.1 0
29.1 0.1 0
29.4 0.1 0
29.7 0.1 0
30 0.1 0
0 0.2 0
0.3 0.2 0
0.6 0.2 0
0.9 0.2 0
1.2 0.2 0
1.5 0.2 0
1.8 0.2 0
2.1 0.2 0
2.4 0.2 0
2.7 0.2 0
3 0.2 0
3.3 0.2 0
3.6 0.2 0
3.9 0.2 0
4.2 0.2 0
4.5 0.2 0
4.8 0.2 0
5.1 0.2 0
5.4 0.2 0
5.7 0.2 0
6 0.2 0
6.3 0.2 0
6.6 0.2 0
6.9 0.2 0
7.2 0.2 0
7.5 0.2 0
7.8 0.2 0
8.1 0.2 0
8.4 0.2 0
8.7 0.2 0
9 0.2 0
9.3 0.2 0
9.6 0.2 0
9.9 0.2 0
10.2 0.2 0
10.5 0.2 0
10.8 0.2 0
11.1 0.2 0
11.4 0.2 0
11.7 0.2 0
12 0.2 0
12.3 0.2 0
12.6 0.2 0
12.9 0.2 0
13.2 0.2 0
13.5 0.2 0
13.8 0.2 0
14.1 0.2 0
14.4 0.2 0
14.7 0.2 0
15 0.2 0
15.3 0.2 0
15.6 0.2 0
15.9 0.2 0
16.2 0.2 0
16.5 0.2 0
16.8 0.2 0
17.1 0.2 0
17.4 0.2 0
17.7 0.2 0
18 0.2 0
18.3 0.2 0
18.6 0.2 0
18.9 0.2 0
19.2 0.2 0
19.5 0.2 0
19.8 0.2 0
20.1 0.2 0
20.4 0.2 0
20.7 0.2 0
21 0.2 0
21.3 0.2 0
21.6 0.2 0
21.9 0.2 0
22.2 0.2 0
22.5 0.2 0
22.8 0.2 0
23.1 0.2 0
23.4 0.2 0
23.7 0.2 0
24 0.2 0
24.3 0.2 0
24.6 0.2 0
24.9 0.2 0
25.2 0.2 0
25.5 0.2 0
25.8 0.2 0
26.1 0.2 0
26.4 0.2 0
26.7 0.2 0
27 0.2 0
27.3 0.2 0
27.6 0.2 0
27.9 0.2 0
28.2 0.2 0
28.5 0.2 0
28.8 0.2 0
29.1 0.2 0
29.4 0.2 0
29.7 0.2 0
30 0.2 0
0 0.3 0
0.3 0.3 0
0.6 0.3 0
0.9 0.3 0
1.2 0.3 0
1.5 0.3 0
1.8 0.3 0
2.1 0.3 0
2.4 0.3 0
2.7 0.3 0
3 0.3 0
3.3 0.3 0
3.6 0.3 0
3.9 0.3 0
4.2 0.3 0
4.5 0.3 0
4.8 0.3 0
5.1 0.3 0
5.4 0.3 0
5.7 0.3 0
6 0.3 0
6.3 0.3 0
6.6 0.3 0
6.9 0.3 0
7.2 0.3 0
7.5 0.3 0
7.8 0.3 0
8.1 0.3 0
8.4 0.3 0
8.7 0.3 0
9 0.3 0
9.3 0.3 0
9.6 0.3 0
9.9 0.3 0
10.2 0.3 0
10.5 0.3 0
10.8 0.3 0
11.1 0.3 0
11.4 0.3 0
11.7 0.3 0
12 0.3 0
12.3 0.3 0
12.6 0.3 0
12.9 0.3 0
13.2 0.3 0
13.5 0.3 0
13.8 0.3 0
14.1 0.3 0
14.4 0.3 0
14.7 0.3 0
15 0.3 0
15.3 0.3 0
15.6 0.3 0
15.9 0.3 0
16.2 0.3 0
16.5 0.3 0
16.8 0.3 0
17.1 0.3 0
17.4 0.3 0
17.7 0.3 0
18 0.3 0
18.3 0.3 0
18.6 0.3 0
18.9 0.3 0
19.2 0.3 0
19.5 0.3 0
19.8 0.3 0
20.1 0.3 0
20.4 0.3 0
20.7 0.3 0
21 0.3 0
21.3 0.3 0
21.6 0.3 0
21.9 0.3 0
22.2 0.3 0
22.5 0.3 0
22.8 0.3 0
23.1 0.3 0
23.4 0.3 0
23.7 0.3 0
24 0.3 0
24.3 0.3 0
24.6 0.3 0
24.9 0.3 0
25.2 0.3 0
25.5 0.3 0
25.8 0.3 0
26.1 0.3 0
26.4 0.3 0
26.7 0.3 0
27 0.3 0
27.3 0.3 0
27.6 0.3 0
27.9 0.3 0
28.2 0.3 0
28.5 0.3 0
28.8 0.3 0
29.1 0.3 0
29.4 0.3 0
29.7 0.3 0
30 0.3 0
0 0.4 0
0.3 0.4 0
0.6 0.4 0
0.9 0.4 0
1.2 0.4 0
1.5 0.4 0
1.8 0.4 0
2.1 0.4 0
2.4 0.4 0
2.7 0.4 0
3 0.4 0
3.3 0.4 0
3.6 0.4 0
3.9 0.4 0
4.2 0.4 0
4.5 0.4 0
4.8 0.4 0
5.1 0.4 0
5.4 0.4 0
5.7 0.4 0
6 0.4 0
6.3 0.4 0
6.6 0.4 0
6.9 0.4 0
7.2 0.4 0
7.5 0.4 0
7.8 0.4 0
8.1 0.4 0
8.4 0.4 0
8.7 0.4 0
9 0.4 0
9.3 0.4 0
9.6 0.4 0
9.9 0.4 0
10.2 0.4 0
10.5 0.4 0
10.8 0.4 0
11.1 0.4 0
11.4 0.4 0
11.7 0.4 0
12 0.4 0
12.3 0.4 0
12.6 0.4 0
12.9 0.4 0
13.2 0.4 0
13.5 0.4 0
13.8 0.4 0
14.1 0.4 0
14.4 0.4 0
14.7 0.4 0
15 0.4 0
15.3 0.4 0
15.6 0.4 0
15.9 0.4 0
16.2 0.4 0
16.5 0.4 0
16.8 0.4 0
17.1 0.4 0
17.4 0.4 0
17.7 0.4 0
18 0.4 0
18.3 0.4 0
18.6 0.4 0
18.9 0.4 0
19.2 0.4 0
19.5 0.4 0
19.8 0.4 0
20.1 0.4 0
20.4 0.4 0
20.7 0.4 0
21 0.4 0
21.3 0.4 0
21.6 0.4 0
21.9 0.4 0
22.2 0.4 0
22.5 0.4 0
22.8 0.4 0
23.1 0.4 0
23.4 0.4 0
23.7 0.4 0
24 0.4 0
24.3 0.4 0
24.6 0.4 0
24.9 0.4 0
25.2 0.4 0
25.5 0.4 0
25.8 0.4 0
26.1 0.4 0
26.4 0.4 0
26.7 0.4 0
27 0.4 0
27.3 0.4 0
27.6 0.4 0
27.9 0.4 0
28.2 0.4 0
28.5 0.4 0
28.8 0.4 0
29.1 0.4 0
29.4 0.4 0
29.7 0.4 0
30 0.4 0
0 0.5 0
0.3 0.5 0
0.6 0.5 0
0.9 0.5 0
1.2 0.5 0
1.5 0.5 0
1.8 0.5 0
2.1 0.5 0
2.4 0.5 0
2.7 0.5 0
3 0.5 0
3.3 0.5 0
3.6 0.5 0
3.9 0.5 0
4.2 0.5 0
4.5 0.5 0
4.8 0.5 0
5.1 0.5 0
5.4 0.5 0
5.7 0.5 0
6 0.5 0
6.3 0.5 0
6.6 0.5 0
6.9 0.5 0
7.2 0.5 0
7.5 0.5 0
7.8 0.5 0
8.1 0.5 0
8.4 0.5 0
8.7 0.5 0
9 0.5 0
9.3 0.5 0
9.6 0.5 0
9.9 0.5 0
10.2 0.5 0
10.5 0.5 0
10.8 0.5 0
11.1 0.5 0
11.4 0.5 0
11.7 0.5 0
12 0.5 0
12.3 0.5 0
12.6 0.5 0
12.9 0.5 0
13.2 0.5 0
13.5 0.5 0
13.8 0.5 0
14.1 0.5 0
14.4 0.5 0
14.7 0.5 0
15 0.5 0
15.3 0.5 0
15.6 0.5 0
15.9 0.5 0
16.2 0.5 0
16.5 0.5 0
16.8 0.5 0
17.1 0.5 0
17.4 0.5 0
17.7 0.5 0
18 0.5 0
18.3 0.5 0
18.6 0.5 0
18.9 0.5 0
19.2 0.5 0
19.5 0.5 0
19.8 0.5 0
20.1 0.5 0
20.4 0.5 0
20.7 0.5 0
21 0.5 0
21.3 0.5 0
21.6 0.5 0
21.9 0.5 0
22.2 0.5 0
22.5 0.5 0
22.8 0.5 0
23.1 0.5 0
23.4 0.5 0
23.7 0.5 0
24 0.5 0
24.3 0.5 0
24.6 0.5 0
24.9 0.5 0
25.2 0.5 0
25.5 0.5 0
25.8 0.5 0
26.1 0.5 0
26.4 0.5 0
26.7 0.5 0
27 0.5 0
27.3 0.5 0
27.6 0.5 0
27.9 0.5 0
28.2 0.5 0
28.5 0.5 0
28.8 0.5 0
29.1 0.5 0
29.4 0.5 0
29.7 0.5 0
30 0.5 0
0 0.6 0
0.3 0.6 0
0.6 0.6 0
0.9 0.6 0
1.2 0.6 0
1.5 0.6 0
1.8 0.6 0
2.1 0.6 0
2.4 0.6 0
2.7 0.6 0
3 0.6 0
3.3 0.6 0
3.6 0.6 0
3.9 0.6 0
4.2 0.6 0
4.5 0.6 0
4.8 0.6 0
5.1 0.6 0
5.4 0.6 0
5.7 0.6 0
6 0.6 0
6.3 0.6 0
6.6 0.6 0
6.9 0.6 0
7.2 0.6 0
7.5 0.6 0
7.8 0.6 0
8.1 0.6 0
8.4 0.6 0
8.7 0.6 0
9 0.6 0
9.3 0.6 0
9.6 0.6 0
9.9 0.6 0
10.2 0.6 0
10.5 0.6 0
10.8 0.6 0
11.1 0.6 0
11.4 0.6 0
11.7 0.6 0
12 0.6 0
12.3 0.6 0
12.6 0.6 0
12.9 0.6 0
13.2 0.6 0
13.5 0.6 0
13.8 0.6 0
14.1 0.6 0
14.4 0.6 0
14.7 0.6 0
15 0.6 0
15.3 0.6 0
15.6 0.6 0
15.9 0.6 0
16.2 0.6 0
16.5 0.6 0
16.8 0.6 0
17.1 0.6 0
17.4 0.6 0
17.7 0.6 0
18 0.6 0
18.3 0.6 0
18.6 0.6 0
18.9 0.6 0
19.2 0.6 0
19.5 0.6 0
19.8 0.6 0
20.1 0.6 0
20.4 0.6 0
20.7 0.6 0
21 0.6 0
21.3 0.6 0
21.6 0.6 0
21.9 0.6 0
22.2 0.6 0
22.5 0.6 0
22.8 0.6 0
23.1 0.6 0
23.4 0.6 0
23.7 0.6 0
24 0.6 0
24.3 0.6 0
24.6 0.6 0
24.9 0.6 0
25.2 0.6 0
25.5 0.6 0
25.8 0.6 0
26.1 0.6 0
26.4 0.6 0
26.7 0.6 0
27 0.6 0
27.3 0.6 0
27.6 0.6 0
27.9 0.6 0
28.2 0.6 0
28.5 0.6 0
28.8 0.6 0
29.1 0.6 0
29.4 0.6 0
29.7 0.6 0
30 0.6 0
0 0.7 0
0.3 0.7 0
0.6 0.7 0
0.9 0.7 0
1.2 0.7 0
1.5 0.7 0
1.8 0.7 0
2.1 0.7 0
2.4 0.7 0
2.7 0.7 0
3 0.7 0
3.3 0.7 0
3.6 0.7 0
3.9 0.7 0
4.2 0.7 0
4.5 0.7 0
4.8 0.7 0
5.1 0.7 0
5.4 0.7 0
5.7 0.7 0
6 0.7 0
6.3 0.7 0
6.6 0.7 0
6.9 0.7 0
7.2 0.7 0
7.5 0.7 0
7.8 0.7 0
8.1 0.7 0
8.4 0.7 0
8.7 0.7 0
9 0.7 0
9.3 0.7 0
9.6 0.7 0
9.9 0.7 0
10.2 0.7 0
10.5 0.7 0
10.8 0.7 0
11.1 0.7 0
11.4 0.7 0
11.7 0.7 0
12 0.7 0
12.3 0.7 0
12.6 0.7 0
12.9 0.7 0
13.2 0.7 0
13.5 0.7 0
13.8 0.7 0
14.1 0.7 0
14.4 0.7 0
14.7 0.7 0
15 0.7 0
15.3 0.7 0
15.6 0.7 0
15.9 0.7 0
16.2 0.7 0
16.5 0.7 0
16.8 0.7 0
17.1 0.7 0
17.4 0.7 0
17.7 0.7 0
18 0.7 0
18.3 0.7 0
18.6 0.7 0
18.9 0.7 0
19.2 0.7 0
19.5 0.7 0
19.8 0.7 0
20.1 0.7 0
20.4 0.7 0
20.7 0.7 0
21 0.7 0
21.3 0.7 0
21.6 0.7 0
21.9 0.7 0
22.2 0.7 0
22.5 0.7 0
22.8 0.7 0
23.1 0.7 0
23.4 0.7 0
23.7 0.7 0
24 0.7 0
24.3 0.7 0
24.6 0.7 0
24.9 0.7 0
25.2 0.7 0
25.5 0.7 0
25.8 0.7 0
26.1 0.7 0
26.4 0.7 0
26.7 0.7 0
27 0.7 0
27.3 0.7 0
27.6 0.7 0
27.9 0.7 0
28.2 0.7 0
28.5 0.7 0
28.8 0.7 0
29.1 0.7 0
29.4 0.7 0
29.7 0.7 0
30 0.7 0
0 0.8 0
0.3 0.8 0
0.6 0.8 0
0.9 0.8 0
1.2 0.8 0
1.5 0.8 0
1.8 0.8 0
2.1 0.8 0
2.4 0.8 0
2.7 0.8 0
3 0.8 0
3.3 0.8 0
3.6 0.8 0
3.9 0.8 0
4.2 0.8 0
4.5 0.8 0
4.8 0.8 0
5.1 0.8 0
5.4 0.8 0
5.7 0.8 0
6 0.8 0
6.3 0.8 0
6.6 0.8 0
6.9 0.8 0
7.2 0.8 0
7.5 0.8 0
7.8 0.8 0
8.1 0.8 0
8.4 0.8 0
8.7 0.8 0
9 0.8 0
9.3 0.8 0
9.6 0.8 0
9.9 0.8 0
10.2 0.8 0
10.5 0.8 0
10.8 0.8 0
11.1 0.8 0
11.4 0.8 0
11.7 0.8 0
12 0.8 0
12.3 0.8 0
12.6 0.8 0
12.9 0.8 0
13.2 0.8 0
13.5 0.8 0
13.8 0.8 0
14.1 0.8 0
14.4 0.8 0
14.7 0.8 0
15 0.8 0
15.3 0.8 0
15.6 0.8 0
15.9 0.8 0
16.2 0.8 0
16.5 0.8 0
16.8 0.8 0
17.1 0.8 0
17.4 0.8 0
17.7 0.8 0
18 0.8 0
18.3 0.8 0
18.6 0.8 0
18.9 0.8 0
19.2 0.8 0
19.5 0.8 0
19.8 0.8 0
20.1 0.8 0
20.4 0.8 0
20.7 0.8 0
21 0.8 0
21.3 0.8 0
21.6 0.8 0
21.9 0.8 0
22.2 0.8 0
22.5 0.8 0
22.8 0.8 0
23.1 0.8 0
23.4 0.8 0
23.7 0.8 0
24 0.8 0
24.3 0.8 0
24.6 0.8 0
24.9 0.8 0
25.2 0.8 0
25.5 0.8 0
25.8 0.8 0
26.1 0.8 0
26.4 0.8 0
26.7 0.8 0
27 0.8 0
27.3 0.8 0
27.6 0.8 0
27.9 0.8 0
28.2 0.8 0
28.5 0.8 0
28.8 0.8 0
29.1 0.8 0
29.4 0.8 0
29.7 0.8 0
30 0.8 0
0 0.9 0
0.3 0.9 0
0.6 0.9 0
0.9 0.9 0
1.2 0.9 0
1.5 0.9 0
1.8 0.9 0
2.1 0.9 0
2.4 0.9 0
2.7 0.9 0
3 0.9 0
3.3 0.9 0
3.6 0.9 0
3.9 0.9 0
4.2 0.9 0
4.5 0.9 0
4.8 0.9 0
5.1 0.9 0
5.4 0.9 0
5.7 0.9 0
6 0.9 0
6.3 0.9 0
6.6 0.9 0
6.9 0.9 0
7.2 0.9 0
7.5 0.9 0
7.8 0.9 0
8.1 0.9 0
8.4 0.9 0
8.7 0.9 0
9 0.9 0
9.3 0.9 0
9.6 0.9 0
9.9 0.9 0
10.2 0.9 0
10.5 0.9 0
10.8 0.9 0
11.1 0.9 0
11.4 0.9 0
11.7 0.9 0
12 0.9 0
12.3 0.9 0
12.6 0.9 0
12.9 0.9 0
13.2 0.9 0
13.5 0.9 0
13.8 0.9 0
14.1 0.9 0
14.4 0.9 0
14.7 0.9 0
15 0.9 0
15.3 0.9 0
15.6 0.9 0
15.9 0.9 0
16.2 0.9 0
16.5 0.9 0
16.8 0.9 0
17.1 0.9 0
17.4 0.9 0
17.7 0.9 0
18 0.9 0
18.3 0.9 0
18.6 0.9 0
18.9 0.9 0
19.2 0.9 0
19.5 0.9 0
19.8 0.9 0
20.1 0.9 0
20.4 0.9 0
20.7 0.9 0
21 0.9 0
21.3 0.9 0
21.6 0.9 0
21.9 0.9 0
22.2 0.9 0
22.5 0.9 0
22.8 0.9 0
23.1 0.9 0
23.4 0.9 0
23.7 0.9 0
24 0.9 0
24.3 0.9 0
24.6 0.9 0
24.9 0.9 0
25.2 0.9 0
25.5 0.9 0
25.8 0.9 0
26.1 0.9 0
26.4 0.9 0
26.7 0.9 0
27 0.9 0
27.3 0.9 0
27.6 0.9 0
27.9 0.9 0
28.2 0.9 0
28.5 0.9 0
28.8 0.9 0
29.1 0.9 0
29.4 0.9 0
29.7 0.9 0
30 0.9 0
0 1 0
0.3 1 0
0.6 1 0
0.9 1 0
1.2 1 0
1.5 1 0
1.8 1 0
2.1 1 0
2.4 1 0
2.7 1 0
3 1 0
3.3 1 0
3.6 1 0
3.9 1 0
4.2 1 0
4.5 1 0
4.8 1 0
5.1 1 0
5.4 1 0
5.7 1 0
6 1 0
6.3 1 0
6.6 1 0
6.9 1 0
7.2 1 0
7.5 1 0
7.8 1 0
8.1 1 0
8.4 1 0
8.7 1 0
9 1 0
9.3 1 0
9.6 1 0
9.9 1 0
10.2 1 0
10.5 1 0
10.8 1 0
11.1 1 0
11.4 1 0
11.7 1 0
12 1 0
12.3 1 0
12.6 1 0
12.9 1 0
13.2 1 0
13.5 1 0
13.8 1 0
14.1 1 0
14.4 1 0
14.7 1 0
15 1 0
15.3 1 0
15.6 1 0
15.9 1 0
16.2 1 0
16.5 1 0
16.8 1 0
17.1 1 0
17.4 1 0
17.7 1 0
18 1 0
18.3 1 0
18.6 1 0
18.9 1 0
19.2 1 0
19.5 1 0
19.8 1 0
20.1 1 0
20.4 1 0
20.7 1 0
21 1 0
21.3 1 0
21.6 1 0
21.9 1 0
22.2 1 0
22.5 1 0
22.8 1 0
23.1 1 0
23.4 1 0
23.7 1 0
24 1 0
24.3 1 0
24.6 1 0
24.9 1 0
25.2 1 0
25.5 1 0
25.8 1 0
26.1 1 0
26.4 1 0
26.7 1 0
27 1 0
27.3 1 0
27.6 1 0
27.9 1 0
28.2 1 0
28.5 1 0
28.8 1 0
29.1 1 0
29.4 1 0
29.7 1 0
30 1 0

POINT_DATA 1111

SCALARS u double
LOOKUP_TABLE default
-1
-0.892043
-0.781757
-0.688942
-0.614561
-0.556455
-0.511778
-0.47771
-0.45176
-0.431883
-0.416488
-0.404381
-0.394688
-0.386781
-0.38021
-0.374655
-0.369888
-0.365743
-0.362102
-0.358874
-0.355993
-0.353405
-0.351071
-0.348957
-0.347038
-0.34529
-0.343697
-0.342246
-0.340925
-0.339728
-0.33865
-0.337686
-0.336834
-0.336091
-0.335452
-0.334913
-0.334466
-0.334102
-0.333813
-0.333588
-0.333417
-0.333289
-0.333196
-0.333129
-0.333083
-0.333052
-0.333031
-0.333018
-0.333009
-0.333004
-0.333001
-0.332999
-0.332998
-0.332997
-0.332997
-0.332997
-0.332997
-0.332997
-0.332997
-0.332997
-0.332997
-0.332997
-0.332997
-0.332997
-0.332997
-0.332997
-0.332997
-0.332997
-0.332997
-0.332997
-0.332997
-0.332997
-0.332997
-0.332997
-0.332997
-0.332997
-0.332997
-0.332997
-0.332997
-0.332997
-0.332997
-0.332997
-0.332997
-0.332997
-0.332997
-0.332997
-0.332997
-0.332997
-0.332997
-0.332997
-0.332997
-0.332997
-0.332997
-0.332997
-0.332997
-0.332997
-0.332998
-0.332999
-0.333005
-0.333005
-1
1
0.892043
0.781757
0.688942
0.614561
0.556455
0.511778
0.47771
0.45176
0.431883
0.416488
0.404381
0.394688
0.386781
0.38021
0.374655
0.369888
0.365743
0.362102
0.358874
0.355993
0.353405
0.351071
0.348957
0.347038
0.34529
0.343697
0.342246
0.340925
0.339728
0.33865
0.337686
0.336834
0.336091
0.335452
0.334913
0.334466
0.334102
0.333813
0.333588
0.333417
0.333289
0.333196
0.333129
0.333083
0.333052
0.333031
0.333018
0.333009
0.333004
0.333001
0.332999
0.332998
0.332997
0.332997
0.332997
0.332997
0.332997
0.332997
0.332997
0.332997
0.332997
0.332997
0.332997
0.332997
0.332997
0.332997
0.332997
0.332997
0.332997
0.332997
0.332997
0.332997
0.332997
0.332997
0.332997
0.332997
0.332997
0.332997
0.332997
0.332997
0.332997
0.332997
0.332997
0.332997
0.332997
0.332997
0.332997
0.332997
0.332997
0.332997
0.332997
0.332997
0.332997
0.332997
0.332997
0.332998
0.332999
0.333005
0.333005
1
1
1.03004
1.03872
1.03588
1.02713
1.01543
1.00247
0.989261
0.976369
0.964124
0.95269
0.942133
0.93246
0.923639
0.915621
0.908346
0.90175
0.895769
0.890345
0.885421
0.880947
0.876878
0.873171
0.869791
0.866706
0.863888
0.861315
0.858966
0.856828
0.854891
0.853145
0.851586
0.850208
0.849006
0.847973
0.8471
0.846376
0.845787
0.845317
0.844951
0.844672
0.844463
0.844311
0.844202
0.844127
0.844075
0.844041
0.844019
0.844005
0.843996
0.843991
0.843988
0.843986
0.843985
0.843985
0.843985
0.843985
0.843985
0.843985
0.843985
0.843985
0.843985
0.843985
0.843985
0.843985
0.843985
0.843985
0.843985
0.843985
0.843985
0.843985
0.843985
0.843985
0.843985
0.843985
0.843985
0.843985
0.843985
0.843985
0.843985
0.843985
0.843985
0.843985
0.843985
0.843985
0.843985
0.843985
0.843985
0.843985
0.843985
0.843985
0.843985
0.843985
0.843985
0.843985
0.843985
0.843986
0.843984
0.844015
0.844015
1
1
1.03528
1.07404
1.1071
1.13349
1.15381
1.16904
1.18023
1.18831
1.19405
1.19805
1.20077
1.20255
1.20365
1.20425
1.20449
1.20448
1.20428
1.20396
1.20355
1.20308
1.20258
1.20206
1.20154
1.20102
1.20052
1.20003
1.19956
1.19911
1.19869
1.1983
1.19792
1.19758
1.19727
1.19698
1.19672
1.1965
1.1963
1.19614
1.196
1.19588
1.19579
1.19572
1.19567
1.19563
1.1956
1.19558
1.19557
1.19556
1.19555
1.19555
1.19554
1.19554
1.19554
1.19554
1.19554
1.19554
1.19554
1.19554
1.19554
1.19554
1.19554
1.19554
1.19554
1.19554
1.19554
1.19554
1.19554
1.19554
1.19554
1.19554
1.19554
1.19554
1.19554
1.19554
1.19554
1.19554
1.19554
1.19554
1.19554
1.19554
1.19554
1.19554
1.19554
1.19554
1.19554
1.19554
1.19554
1.19554
1.19554
1.19554
1.19554
1.19554
1.19554
1.19554
1.19554
1.19554
1.19554
1.19555
1.19555
1
1
1.02921
1.07124
1.11265
1.14986
1.18204
1.20937
1.23242
1.25188
1.26841
1.28257
1.29484
1.30555
1.31499
1.32338
1.33087
1.3376
1.34366
1.34915
1.35412
1.35865
1.36277
1.36653
1.36997
1.37311
1.37599
1.37863
1.38104
1.38324
1.38524
1.38704
1.38866
1.39009
1.39135
1.39243
1.39335
1.39412
1.39475
1.39525
1.39564
1.39595
1.39617
1.39634
1.39646
1.39654
1.3966
1.39664
1.39666
1.39668
1.39669
1.3967
1.3967
1.3967
1.3967
1.3967
1.3967
1.3967
1.3967
1.3967
1.3967
1.3967
1.3967
1.3967
1.3967
1.3967
1.3967
1.3967
1.3967
1.3967
1.3967
1.3967
1.3967
1.3967
1.3967
1.3967
1.3967
1.3967
1.3967
1.3967
1.3967
1.3967
1.3967
1.3967
1.3967
1.3967
1.3967
1.3967
1.3967
1.3967
1.3967
1.3967
1.39671
1.3967
1.39671
1.3967
1.39671
1.3967
1.3967
1.39668
1.39668
1
1
1.02685
1.06849
1.11086
1.14991
1.18453
1.21467
1.24075
1.26336
1.28307
1.3004
1.31576
1.3295
1.34188
1.35308
1.36327
1.37257
1.38109
1.3889
1.39607
1.40267
1.40874
1.41433
1.41949
1.42424
1.42863
1.43267
1.43638
1.43979
1.44291
1.44574
1.44829
1.45057
1.45258
1.45432
1.45582
1.45708
1.45812
1.45897
1.45964
1.46017
1.46057
1.46087
1.46108
1.46124
1.46135
1.46142
1.46147
1.46151
1.46153
1.46154
1.46155
1.46155
1.46155
1.46156
1.46156
1.46156
1.46156
1.46156
1.46156
1.46156
1.46156
1.46156
1.46156
1.46156
1.46156
1.46156
1.46156
1.46156
1.46156
1.46156
1.46156
1.46156
1.46156
1.46156
1.46156
1.46156
1.46156
1.46156
1.46156
1.46156
1.46156
1.46156
1.46156
1.46156
1.46156
1.46156
1.46156
1.46156
1.46156
1.46156
1.46156
1.46156
1.46156
1.46156
1.46156
1.46156
1.46156
1.46152
1.46152
1
1
1.02921
1.07124
1.11265
1.14986
1.18204
1.20937
1.23242
1.25188
1.26841
1.28257
1.29484
1.30555
1.31499
1.32338
1.33087
1.3376
1.34366
1.34915
1.35412
1.35865
1.36277
1.36653
1.36997
1.37311
1.37599
1.37863
1.38104
1.38324
1.38524
1.38704
1.38866
1.39009
1.39135
1.39243
1.39335
1.39412
1.39475
1.39525
1.39565
1.39595
1.39618
1.39634
1.39646
1.39654
1.3966
1.39664
1.39667
1.39668
1.39669
1.3967
1.3967
1.3967
1.3967
1.3967
1.3967
1.3967
1.3967
1.3967
1.3967
1.3967
1.3967
1.3967
1.3967
1.3967
1.3967
1.3967
1.3967
1.3967
1.3967
1.3967
1.3967
1.3967
1.3967
1.3967
1.3967
1.3967
1.3967
1.3967
1.3967
1.3967
1.3967
1.3967
1.3967
1.3967
1.3967
1.3967
1.3967
1.3967
1.3967
1.3967
1.3967
1.3967
1.3967
1.3967
1.3967
1.3967
1.3967
1.39668
1.39668
1
1
1.03528
1.07404
1.1071
1.13349
1.15381
1.16904
1.18023
1.18831
1.19405
1.19805
1.20077
1.20255
1.20365
1.20425
1.20449
1.20448
1.20428
1.20396
1.20355
1.20308
1.20258
1.20206
1.20154
1.20102
1.20052
1.20003
1.19956
1.19911
1.19869
1.1983
1.19793
1.19758
1.19727
1.19698
1.19673
1.1965
1.1963
1.19614
1.196
1.19588
1.19579
1.19572
1.19567
1.19563
1.1956
1.19558
1.19557
1.19556
1.19555
1.19555
1.19554
1.19554
1.19554
1.19554
1.19554
1.19554
1.19554
1.19554
1.19554
1.19554
1.19554
1.19554
1.19554
1.19554
1.19554
1.19554
1.19554
1.19554
1.19554
1.19554
1.19554
1.19554
1.19554
1.19554
1.19554
1.19554
1.19554
1.19554
1.19554
1.19554
1.19554
1.19554
1.19554
1.19554
1.19554
1.19554
1.19554
1.19554
1.19554
1.19554
1.19554
1.19554
1.19554
1.19554
1.19554
1.19554
1.19554
1.19555
1.19555
1
1
1.03004
1.03872
1.03588
1.02713
1.01543
1.00247
0.989261
0.97637
0.964125
0.95269
0.942134
0.93246
0.92364
0.915622
0.908347
0.90175
0.89577
0.890346
0.885422
0.880948
0.876879
0.873172
0.869792
0.866707
0.863889
0.861315
0.858967
0.856829
0.854891
0.853146
0.851587
0.850209
0.849007
0.847974
0.847101
0.846377
0.845788
0.845318
0.844952
0.844672
0.844464
0.844311
0.844203
0.844127
0.844076
0.844042
0.844019
0.844005
0.843997
0.843992
0.843989
0.843987
0.843986
0.843985
0.843985
0.843985
0.843985
0.843985
0.843985
0.843985
0.843985
0.843985
0.843985
0.843985
0.843985
0.843985
0.843985
0.843985
0.843985
0.843985
0.843985
0.843985
0.843985
0.843985
0.843985
0.843985
0.843985
0.843985
0.843985
0.843985
0.843985
0.843985
0.843985
0.843985
0.843985
0.843985
0.843985
0.843985
0.843985
0.843985
0.843985
0.843985
0.843985
0.843985
0.843985
0.843986
0.843984
0.844015
0.844015
1
1
0.892043
0.781757
0.688942
0.614562
0.556455
0.511779
0.477711
0.45176
0.431883
0.416488
0.404382
0.394689
0.386781
0.38021
0.374655
0.369888
0.365744
0.362103
0.358875
0.355993
0.353406
0.351072
0.348958
0.347038
0.34529
0.343698
0.342246
0.340926
0.339729
0.33865
0.337686
0.336834
0.336091
0.335452
0.334913
0.334466
0.334103
0.333814
0.333589
0.333417
0.333289
0.333196
0.33313
0.333084
0.333052
0.333032
0.333018
0.33301
0.333004
0.333001
0.332999
0.332998
0.332998
0.332997
0.332997
0.332997
0.332997
0.332997
0.332997
0.332997
0.332997
0.332997
0.332997
0.332997
0.332997
0.332997
0.332997
0.332997
0.332997
0.332997
0.332997
0.332997
0.332997
0.332997
0.332997
0.332997
0.332997
0.332997
0.332997
0.332997
0.332997
0.332997
0.332997
0.332997
0.332997
0.332997
0.332997
0.332997
0.332997
0.332997
0.332997
0.332997
0.332997
0.332997
0.332997
0.332998
0.332999
0.333005
0.333005
1
-1
-0.892043
-0.781757
-0.688942
-0.614562
-0.556455
-0.511779
-0.477711
-0.45176
-0.431883
-0.416488
-0.404382
-0.394689
-0.386781
-0.38021
-0.374655
-0.369888
-0.365744
-0.362103
-0.358875
-0.355993
-0.353406
-0.351072
-0.348958
-0.347038
-0.34529
-0.343698
-0.342246
-0.340926
-0.339729
-0.33865
-0.337686
-0.336834
-0.336091
-0.335452
-0.334913
-0.334466
-0.334103
-0.333814
-0.333589
-0.333417
-0.333289
-0.333196
-0.33313
-0.333084
-0.333052
-0.333032
-0.333018
-0.33301
-0.333004
-0.333001
-0.332999
-0.332998
-0.332998
-0.332997
-0.332997
-0.332997
-0.332997
-0.332997
-0.332997
-0.332997
-0.332997
-0.332997
-0.332997
-0.332997
-0.332997
-0.332997
-0.332997
-0.332997
-0.332997
-0.332997
-0.332997
-0.332997
-0.332997
-0.332997
-0.332997
-0.332997
-0.332997
-0.332997
-0.332997
-0.332997
-0.332997
-0.332997
-0.332997
-0.332997
-0.332997
-0.332997
-0.332997
-0.332997
-0.332997
-0.332997
-0.332997
-0.332997
-0.332997
-0.332997
-0.332997
-0.332998
-0.332999
-0.333005
-0.333005
-1
