# vtk DataFile Version 2.0
FlowField
ASCII
DATASET STRUCTURED_GRID
DIMENSIONS 102 13 1 
POINTS 1326 double
0 0 0
0.3 0 0
0.6 0 0
0.9 0 0
1.2 0 0
1.5 0 0
1.8 0 0
2.1 0 0
2.4 0 0
2.7 0 0
3 0 0
3.3 0 0
3.6 0 0
3.9 0 0
4.2 0 0
4.5 0 0
4.8 0 0
5.1 0 0
5.4 0 0
5.7 0 0
6 0 0
6.3 0 0
6.6 0 0
6.9 0 0
7.2 0 0
7.5 0 0
7.8 0 0
8.1 0 0
8.4 0 0
8.7 0 0
9 0 0
9.3 0 0
9.6 0 0
9.9 0 0
10.2 0 0
10.5 0 0
10.8 0 0
11.1 0 0
11.4 0 0
11.7 0 0
12 0 0
12.3 0 0
12.6 0 0
12.9 0 0
13.2 0 0
13.5 0 0
13.8 0 0
14.1 0 0
14.4 0 0
14.7 0 0
15 0 0
15.3 0 0
15.6 0 0
15.9 0 0
16.2 0 0
16.5 0 0
16.8 0 0
17.1 0 0
17.4 0 0
17.7 0 0
18 0 0
18.3 0 0
18.6 0 0
18.9 0 0
19.2 0 0
19.5 0 0
19.8 0 0
20.1 0 0
20.4 0 0
20.7 0 0
21 0 0
21.3 0 0
21.6 0 0
21.9 0 0
22.2 0 0
22.5 0 0
22.8 0 0
23.1 0 0
23.4 0 0
23.7 0 0
24 0 0
24.3 0 0
24.6 0 0
24.9 0 0
25.2 0 0
25.5 0 0
25.8 0 0
26.1 0 0
26.4 0 0
26.7 0 0
27 0 0
27.3 0 0
27.6 0 0
27.9 0 0
28.2 0 0
28.5 0 0
28.8 0 0
29.1 0 0
29.4 0 0
29.7 0 0
30 0 0
30.3 0 0
0 0.1 0
0.3 0.1 0
0.6 0.1 0
0.9 0.1 0
1.2 0.1 0
1.5 0.1 0
1.8 0.1 0
2.1 0.1 0
2.4 0.1 0
2.7 0.1 0
3 0.1 0
3.3 0.1 0
3.6 0.1 0
3.9 0.1 0
4.2 0.1 0
4.5 0.1 0
4.8 0.1 0
5.1 0.1 0
5.4 0.1 0
5.7 0.1 0
6 0.1 0
6.3 0.1 0
6.6 0.1 0
6.9 0.1 0
7.2 0.1 0
7.5 0.1 0
7.8 0.1 0
8.1 0.1 0
8.4 0.1 0
8.7 0.1 0
9 0.1 0
9.3 0.1 0
9.6 0.1 0
9.9 0.1 0
10.2 0.1 0
10.5 0.1 0
10.8 0.1 0
11.1 0.1 0
11.4 0.1 0
11.7 0.1 0
12 0.1 0
12.3 0.1 0
12.6 0.1 0
12.9 0.1 0
13.2 0.1 0
13.5 0.1 0
13.8 0.1 0
14.1 0.1 0
14.4 0.1 0
14.7 0.1 0
15 0.1 0
15.3 0.1 0
15.6 0.1 0
15.9 0.1 0
16.2 0.1 0
16.5 0.1 0
16.8 0.1 0
17.1 0.1 0
17.4 0.1 0
17.7 0.1 0
18 0.1 0
18.3 0.1 0
18.6 0.1 0
18.9 0.1 0
19.2 0.1 0
19.5 0.1 0
19.8 0.1 0
20.1 0.1 0
20.4 0.1 0
20.7 0.1 0
21 0.1 0
21.3 0.1 0
21.6 0.1 0
21.9 0.1 0
22.2 0.1 0
22.5 0.1 0
22.8 0.1 0
23.1 0.1 0
23.4 0.1 0
23.7 0.1 0
24 0.1 0
24.3 0.1 0
24.6 0.1 0
24.9 0.1 0
25.2 0.1 0
25.5 0.1 0
25.8 0.1 0
26.1 0.1 0
26.4 0.1 0
26.7 0.1 0
27 0.1 0
27.3 0.1 0
27.6 0.1 0
27.9 0.1 0
28.2 0.1 0
28.5 0.1 0
28.8 0.1 0
29.1 0.1 0
29.4 0.1 0
29.7 0.1 0
30 0.1 0
30.3 0.1 0
0 0.2 0
0.3 0.2 0
0.6 0.2 0
0.9 0.2 0
1.2 0.2 0
1.5 0.2 0
1.8 0.2 0
2.1 0.2 0
2.4 0.2 0
2.7 0.2 0
3 0.2 0
3.3 0.2 0
3.6 0.2 0
3.9 0.2 0
4.2 0.2 0
4.5 0.2 0
4.8 0.2 0
5.1 0.2 0
5.4 0.2 0
5.7 0.2 0
6 0.2 0
6.3 0.2 0
6.6 0.2 0
6.9 0.2 0
7.2 0.2 0
7.5 0.2 0
7.8 0.2 0
8.1 0.2 0
8.4 0.2 0
8.7 0.2 0
9 0.2 0
9.3 0.2 0
9.6 0.2 0
9.9 0.2 0
10.2 0.2 0
10.5 0.2 0
10.8 0.2 0
11.1 0.2 0
11.4 0.2 0
11.7 0.2 0
12 0.2 0
12.3 0.2 0
12.6 0.2 0
12.9 0.2 0
13.2 0.2 0
13.5 0.2 0
13.8 0.2 0
14.1 0.2 0
14.4 0.2 0
14.7 0.2 0
15 0.2 0
15.3 0.2 0
15.6 0.2 0
15.9 0.2 0
16.2 0.2 0
16.5 0.2 0
16.8 0.2 0
17.1 0.2 0
17.4 0.2 0
17.7 0.2 0
18 0.2 0
18.3 0.2 0
18.6 0.2 0
18.9 0.2 0
19.2 0.2 0
19.5 0.2 0
19.8 0.2 0
20.1 0.2 0
20.4 0.2 0
20.7 0.2 0
21 0.2 0
21.3 0.2 0
21.6 0.2 0
21.9 0.2 0
22.2 0.2 0
22.5 0.2 0
22.8 0.2 0
23.1 0.2 0
23.4 0.2 0
23.7 0.2 0
24 0.2 0
24.3 0.2 0
24.6 0.2 0
24.9 0.2 0
25.2 0.2 0
25.5 0.2 0
25.8 0.2 0
26.1 0.2 0
26.4 0.2 0
26.7 0.2 0
27 0.2 0
27.3 0.2 0
27.6 0.2 0
27.9 0.2 0
28.2 0.2 0
28.5 0.2 0
28.8 0.2 0
29.1 0.2 0
29.4 0.2 0
29.7 0.2 0
30 0.2 0
30.3 0.2 0
0 0.3 0
0.3 0.3 0
0.6 0.3 0
0.9 0.3 0
1.2 0.3 0
1.5 0.3 0
1.8 0.3 0
2.1 0.3 0
2.4 0.3 0
2.7 0.3 0
3 0.3 0
3.3 0.3 0
3.6 0.3 0
3.9 0.3 0
4.2 0.3 0
4.5 0.3 0
4.8 0.3 0
5.1 0.3 0
5.4 0.3 0
5.7 0.3 0
6 0.3 0
6.3 0.3 0
6.6 0.3 0
6.9 0.3 0
7.2 0.3 0
7.5 0.3 0
7.8 0.3 0
8.1 0.3 0
8.4 0.3 0
8.7 0.3 0
9 0.3 0
9.3 0.3 0
9.6 0.3 0
9.9 0.3 0
10.2 0.3 0
10.5 0.3 0
10.8 0.3 0
11.1 0.3 0
11.4 0.3 0
11.7 0.3 0
12 0.3 0
12.3 0.3 0
12.6 0.3 0
12.9 0.3 0
13.2 0.3 0
13.5 0.3 0
13.8 0.3 0
14.1 0.3 0
14.4 0.3 0
14.7 0.3 0
15 0.3 0
15.3 0.3 0
15.6 0.3 0
15.9 0.3 0
16.2 0.3 0
16.5 0.3 0
16.8 0.3 0
17.1 0.3 0
17.4 0.3 0
17.7 0.3 0
18 0.3 0
18.3 0.3 0
18.6 0.3 0
18.9 0.3 0
19.2 0.3 0
19.5 0.3 0
19.8 0.3 0
20.1 0.3 0
20.4 0.3 0
20.7 0.3 0
21 0.3 0
21.3 0.3 0
21.6 0.3 0
21.9 0.3 0
22.2 0.3 0
22.5 0.3 0
22.8 0.3 0
23.1 0.3 0
23.4 0.3 0
23.7 0.3 0
24 0.3 0
24.3 0.3 0
24.6 0.3 0
24.9 0.3 0
25.2 0.3 0
25.5 0.3 0
25.8 0.3 0
26.1 0.3 0
26.4 0.3 0
26.7 0.3 0
27 0.3 0
27.3 0.3 0
27.6 0.3 0
27.9 0.3 0
28.2 0.3 0
28.5 0.3 0
28.8 0.3 0
29.1 0.3 0
29.4 0.3 0
29.7 0.3 0
30 0.3 0
30.3 0.3 0
0 0.4 0
0.3 0.4 0
0.6 0.4 0
0.9 0.4 0
1.2 0.4 0
1.5 0.4 0
1.8 0.4 0
2.1 0.4 0
2.4 0.4 0
2.7 0.4 0
3 0.4 0
3.3 0.4 0
3.6 0.4 0
3.9 0.4 0
4.2 0.4 0
4.5 0.4 0
4.8 0.4 0
5.1 0.4 0
5.4 0.4 0
5.7 0.4 0
6 0.4 0
6.3 0.4 0
6.6 0.4 0
6.9 0.4 0
7.2 0.4 0
7.5 0.4 0
7.8 0.4 0
8.1 0.4 0
8.4 0.4 0
8.7 0.4 0
9 0.4 0
9.3 0.4 0
9.6 0.4 0
9.9 0.4 0
10.2 0.4 0
10.5 0.4 0
10.8 0.4 0
11.1 0.4 0
11.4 0.4 0
11.7 0.4 0
12 0.4 0
12.3 0.4 0
12.6 0.4 0
12.9 0.4 0
13.2 0.4 0
13.5 0.4 0
13.8 0.4 0
14.1 0.4 0
14.4 0.4 0
14.7 0.4 0
15 0.4 0
15.3 0.4 0
15.6 0.4 0
15.9 0.4 0
16.2 0.4 0
16.5 0.4 0
16.8 0.4 0
17.1 0.4 0
17.4 0.4 0
17.7 0.4 0
18 0.4 0
18.3 0.4 0
18.6 0.4 0
18.9 0.4 0
19.2 0.4 0
19.5 0.4 0
19.8 0.4 0
20.1 0.4 0
20.4 0.4 0
20.7 0.4 0
21 0.4 0
21.3 0.4 0
21.6 0.4 0
21.9 0.4 0
22.2 0.4 0
22.5 0.4 0
22.8 0.4 0
23.1 0.4 0
23.4 0.4 0
23.7 0.4 0
24 0.4 0
24.3 0.4 0
24.6 0.4 0
24.9 0.4 0
25.2 0.4 0
25.5 0.4 0
25.8 0.4 0
26.1 0.4 0
26.4 0.4 0
26.7 0.4 0
27 0.4 0
27.3 0.4 0
27.6 0.4 0
27.9 0.4 0
28.2 0.4 0
28.5 0.4 0
28.8 0.4 0
29.1 0.4 0
29.4 0.4 0
29.7 0.4 0
30 0.4 0
30.3 0.4 0
0 0.5 0
0.3 0.5 0
0.6 0.5 0
0.9 0.5 0
1.2 0.5 0
1.5 0.5 0
1.8 0.5 0
2.1 0.5 0
2.4 0.5 0
2.7 0.5 0
3 0.5 0
3.3 0.5 0
3.6 0.5 0
3.9 0.5 0
4.2 0.5 0
4.5 0.5 0
4.8 0.5 0
5.1 0.5 0
5.4 0.5 0
5.7 0.5 0
6 0.5 0
6.3 0.5 0
6.6 0.5 0
6.9 0.5 0
7.2 0.5 0
7.5 0.5 0
7.8 0.5 0
8.1 0.5 0
8.4 0.5 0
8.7 0.5 0
9 0.5 0
9.3 0.5 0
9.6 0.5 0
9.9 0.5 0
10.2 0.5 0
10.5 0.5 0
10.8 0.5 0
11.1 0.5 0
11.4 0.5 0
11.7 0.5 0
12 0.5 0
12.3 0.5 0
12.6 0.5 0
12.9 0.5 0
13.2 0.5 0
13.5 0.5 0
13.8 0.5 0
14.1 0.5 0
14.4 0.5 0
14.7 0.5 0
15 0.5 0
15.3 0.5 0
15.6 0.5 0
15.9 0.5 0
16.2 0.5 0
16.5 0.5 0
16.8 0.5 0
17.1 0.5 0
17.4 0.5 0
17.7 0.5 0
18 0.5 0
18.3 0.5 0
18.6 0.5 0
18.9 0.5 0
19.2 0.5 0
19.5 0.5 0
19.8 0.5 0
20.1 0.5 0
20.4 0.5 0
20.7 0.5 0
21 0.5 0
21.3 0.5 0
21.6 0.5 0
21.9 0.5 0
22.2 0.5 0
22.5 0.5 0
22.8 0.5 0
23.1 0.5 0
23.4 0.5 0
23.7 0.5 0
24 0.5 0
24.3 0.5 0
24.6 0.5 0
24.9 0.5 0
25.2 0.5 0
25.5 0.5 0
25.8 0.5 0
26.1 0.5 0
26.4 0.5 0
26.7 0.5 0
27 0.5 0
27.3 0.5 0
27.6 0.5 0
27.9 0.5 0
28.2 0.5 0
28.5 0.5 0
28.8 0.5 0
29.1 0.5 0
29.4 0.5 0
29.7 0.5 0
30 0.5 0
30.3 0.5 0
0 0.6 0
0.3 0.6 0
0.6 0.6 0
0.9 0.6 0
1.2 0.6 0
1.5 0.6 0
1.8 0.6 0
2.1 0.6 0
2.4 0.6 0
2.7 0.6 0
3 0.6 0
3.3 0.6 0
3.6 0.6 0
3.9 0.6 0
4.2 0.6 0
4.5 0.6 0
4.8 0.6 0
5.1 0.6 0
5.4 0.6 0
5.7 0.6 0
6 0.6 0
6.3 0.6 0
6.6 0.6 0
6.9 0.6 0
7.2 0.6 0
7.5 0.6 0
7.8 0.6 0
8.1 0.6 0
8.4 0.6 0
8.7 0.6 0
9 0.6 0
9.3 0.6 0
9.6 0.6 0
9.9 0.6 0
10.2 0.6 0
10.5 0.6 0
10.8 0.6 0
11.1 0.6 0
11.4 0.6 0
11.7 0.6 0
12 0.6 0
12.3 0.6 0
12.6 0.6 0
12.9 0.6 0
13.2 0.6 0
13.5 0.6 0
13.8 0.6 0
14.1 0.6 0
14.4 0.6 0
14.7 0.6 0
15 0.6 0
15.3 0.6 0
15.6 0.6 0
15.9 0.6 0
16.2 0.6 0
16.5 0.6 0
16.8 0.6 0
17.1 0.6 0
17.4 0.6 0
17.7 0.6 0
18 0.6 0
18.3 0.6 0
18.6 0.6 0
18.9 0.6 0
19.2 0.6 0
19.5 0.6 0
19.8 0.6 0
20.1 0.6 0
20.4 0.6 0
20.7 0.6 0
21 0.6 0
21.3 0.6 0
21.6 0.6 0
21.9 0.6 0
22.2 0.6 0
22.5 0.6 0
22.8 0.6 0
23.1 0.6 0
23.4 0.6 0
23.7 0.6 0
24 0.6 0
24.3 0.6 0
24.6 0.6 0
24.9 0.6 0
25.2 0.6 0
25.5 0.6 0
25.8 0.6 0
26.1 0.6 0
26.4 0.6 0
26.7 0.6 0
27 0.6 0
27.3 0.6 0
27.6 0.6 0
27.9 0.6 0
28.2 0.6 0
28.5 0.6 0
28.8 0.6 0
29.1 0.6 0
29.4 0.6 0
29.7 0.6 0
30 0.6 0
30.3 0.6 0
0 0.7 0
0.3 0.7 0
0.6 0.7 0
0.9 0.7 0
1.2 0.7 0
1.5 0.7 0
1.8 0.7 0
2.1 0.7 0
2.4 0.7 0
2.7 0.7 0
3 0.7 0
3.3 0.7 0
3.6 0.7 0
3.9 0.7 0
4.2 0.7 0
4.5 0.7 0
4.8 0.7 0
5.1 0.7 0
5.4 0.7 0
5.7 0.7 0
6 0.7 0
6.3 0.7 0
6.6 0.7 0
6.9 0.7 0
7.2 0.7 0
7.5 0.7 0
7.8 0.7 0
8.1 0.7 0
8.4 0.7 0
8.7 0.7 0
9 0.7 0
9.3 0.7 0
9.6 0.7 0
9.9 0.7 0
10.2 0.7 0
10.5 0.7 0
10.8 0.7 0
11.1 0.7 0
11.4 0.7 0
11.7 0.7 0
12 0.7 0
12.3 0.7 0
12.6 0.7 0
12.9 0.7 0
13.2 0.7 0
13.5 0.7 0
13.8 0.7 0
14.1 0.7 0
14.4 0.7 0
14.7 0.7 0
15 0.7 0
15.3 0.7 0
15.6 0.7 0
15.9 0.7 0
16.2 0.7 0
16.5 0.7 0
16.8 0.7 0
17.1 0.7 0
17.4 0.7 0
17.7 0.7 0
18 0.7 0
18.3 0.7 0
18.6 0.7 0
18.9 0.7 0
19.2 0.7 0
19.5 0.7 0
19.8 0.7 0
20.1 0.7 0
20.4 0.7 0
20.7 0.7 0
21 0.7 0
21.3 0.7 0
21.6 0.7 0
21.9 0.7 0
22.2 0.7 0
22.5 0.7 0
22.8 0.7 0
23.1 0.7 0
23.4 0.7 0
23.7 0.7 0
24 0.7 0
24.3 0.7 0
24.6 0.7 0
24.9 0.7 0
25.2 0.7 0
25.5 0.7 0
25.8 0.7 0
26.1 0.7 0
26.4 0.7 0
26.7 0.7 0
27 0.7 0
27.3 0.7 0
27.6 0.7 0
27.9 0.7 0
28.2 0.7 0
28.5 0.7 0
28.8 0.7 0
29.1 0.7 0
29.4 0.7 0
29.7 0.7 0
30 0.7 0
30.3 0.7 0
0 0.8 0
0.3 0.8 0
0.6 0.8 0
0.9 0.8 0
1.2 0.8 0
1.5 0.8 0
1.8 0.8 0
2.1 0.8 0
2.4 0.8 0
2.7 0.8 0
3 0.8 0
3.3 0.8 0
3.6 0.8 0
3.9 0.8 0
4.2 0.8 0
4.5 0.8 0
4.8 0.8 0
5.1 0.8 0
5.4 0.8 0
5.7 0.8 0
6 0.8 0
6.3 0.8 0
6.6 0.8 0
6.9 0.8 0
7.2 0.8 0
7.5 0.8 0
7.8 0.8 0
8.1 0.8 0
8.4 0.8 0
8.7 0.8 0
9 0.8 0
9.3 0.8 0
9.6 0.8 0
9.9 0.8 0
10.2 0.8 0
10.5 0.8 0
10.8 0.8 0
11.1 0.8 0
11.4 0.8 0
11.7 0.8 0
12 0.8 0
12.3 0.8 0
12.6 0.8 0
12.9 0.8 0
13.2 0.8 0
13.5 0.8 0
13.8 0.8 0
14.1 0.8 0
14.4 0.8 0
14.7 0.8 0
15 0.8 0
15.3 0.8 0
15.6 0.8 0
15.9 0.8 0
16.2 0.8 0
16.5 0.8 0
16.8 0.8 0
17.1 0.8 0
17.4 0.8 0
17.7 0.8 0
18 0.8 0
18.3 0.8 0
18.6 0.8 0
18.9 0.8 0
19.2 0.8 0
19.5 0.8 0
19.8 0.8 0
20.1 0.8 0
20.4 0.8 0
20.7 0.8 0
21 0.8 0
21.3 0.8 0
21.6 0.8 0
21.9 0.8 0
22.2 0.8 0
22.5 0.8 0
22.8 0.8 0
23.1 0.8 0
23.4 0.8 0
23.7 0.8 0
24 0.8 0
24.3 0.8 0
24.6 0.8 0
24.9 0.8 0
25.2 0.8 0
25.5 0.8 0
25.8 0.8 0
26.1 0.8 0
26.4 0.8 0
26.7 0.8 0
27 0.8 0
27.3 0.8 0
27.6 0.8 0
27.9 0.8 0
28.2 0.8 0
28.5 0.8 0
28.8 0.8 0
29.1 0.8 0
29.4 0.8 0
29.7 0.8 0
30 0.8 0
30.3 0.8 0
0 0.9 0
0.3 0.9 0
0.6 0.9 0
0.9 0.9 0
1.2 0.9 0
1.5 0.9 0
1.8 0.9 0
2.1 0.9 0
2.4 0.9 0
2.7 0.9 0
3 0.9 0
3.3 0.9 0
3.6 0.9 0
3.9 0.9 0
4.2 0.9 0
4.5 0.9 0
4.8 0.9 0
5.1 0.9 0
5.4 0.9 0
5.7 0.9 0
6 0.9 0
6.3 0.9 0
6.6 0.9 0
6.9 0.9 0
7.2 0.9 0
7.5 0.9 0
7.8 0.9 0
8.1 0.9 0
8.4 0.9 0
8.7 0.9 0
9 0.9 0
9.3 0.9 0
9.6 0.9 0
9.9 0.9 0
10.2 0.9 0
10.5 0.9 0
10.8 0.9 0
11.1 0.9 0
11.4 0.9 0
11.7 0.9 0
12 0.9 0
12.3 0.9 0
12.6 0.9 0
12.9 0.9 0
13.2 0.9 0
13.5 0.9 0
13.8 0.9 0
14.1 0.9 0
14.4 0.9 0
14.7 0.9 0
15 0.9 0
15.3 0.9 0
15.6 0.9 0
15.9 0.9 0
16.2 0.9 0
16.5 0.9 0
16.8 0.9 0
17.1 0.9 0
17.4 0.9 0
17.7 0.9 0
18 0.9 0
18.3 0.9 0
18.6 0.9 0
18.9 0.9 0
19.2 0.9 0
19.5 0.9 0
19.8 0.9 0
20.1 0.9 0
20.4 0.9 0
20.7 0.9 0
21 0.9 0
21.3 0.9 0
21.6 0.9 0
21.9 0.9 0
22.2 0.9 0
22.5 0.9 0
22.8 0.9 0
23.1 0.9 0
23.4 0.9 0
23.7 0.9 0
24 0.9 0
24.3 0.9 0
24.6 0.9 0
24.9 0.9 0
25.2 0.9 0
25.5 0.9 0
25.8 0.9 0
26.1 0.9 0
26.4 0.9 0
26.7 0.9 0
27 0.9 0
27.3 0.9 0
27.6 0.9 0
27.9 0.9 0
28.2 0.9 0
28.5 0.9 0
28.8 0.9 0
29.1 0.9 0
29.4 0.9 0
29.7 0.9 0
30 0.9 0
30.3 0.9 0
0 1 0
0.3 1 0
0.6 1 0
0.9 1 0
1.2 1 0
1.5 1 0
1.8 1 0
2.1 1 0
2.4 1 0
2.7 1 0
3 1 0
3.3 1 0
3.6 1 0
3.9 1 0
4.2 1 0
4.5 1 0
4.8 1 0
5.1 1 0
5.4 1 0
5.7 1 0
6 1 0
6.3 1 0
6.6 1 0
6.9 1 0
7.2 1 0
7.5 1 0
7.8 1 0
8.1 1 0
8.4 1 0
8.7 1 0
9 1 0
9.3 1 0
9.6 1 0
9.9 1 0
10.2 1 0
10.5 1 0
10.8 1 0
11.1 1 0
11.4 1 0
11.7 1 0
12 1 0
12.3 1 0
12.6 1 0
12.9 1 0
13.2 1 0
13.5 1 0
13.8 1 0
14.1 1 0
14.4 1 0
14.7 1 0
15 1 0
15.3 1 0
15.6 1 0
15.9 1 0
16.2 1 0
16.5 1 0
16.8 1 0
17.1 1 0
17.4 1 0
17.7 1 0
18 1 0
18.3 1 0
18.6 1 0
18.9 1 0
19.2 1 0
19.5 1 0
19.8 1 0
20.1 1 0
20.4 1 0
20.7 1 0
21 1 0
21.3 1 0
21.6 1 0
21.9 1 0
22.2 1 0
22.5 1 0
22.8 1 0
23.1 1 0
23.4 1 0
23.7 1 0
24 1 0
24.3 1 0
24.6 1 0
24.9 1 0
25.2 1 0
25.5 1 0
25.8 1 0
26.1 1 0
26.4 1 0
26.7 1 0
27 1 0
27.3 1 0
27.6 1 0
27.9 1 0
28.2 1 0
28.5 1 0
28.8 1 0
29.1 1 0
29.4 1 0
29.7 1 0
30 1 0
30.3 1 0
0 1.1 0
0.3 1.1 0
0.6 1.1 0
0.9 1.1 0
1.2 1.1 0
1.5 1.1 0
1.8 1.1 0
2.1 1.1 0
2.4 1.1 0
2.7 1.1 0
3 1.1 0
3.3 1.1 0
3.6 1.1 0
3.9 1.1 0
4.2 1.1 0
4.5 1.1 0
4.8 1.1 0
5.1 1.1 0
5.4 1.1 0
5.7 1.1 0
6 1.1 0
6.3 1.1 0
6.6 1.1 0
6.9 1.1 0
7.2 1.1 0
7.5 1.1 0
7.8 1.1 0
8.1 1.1 0
8.4 1.1 0
8.7 1.1 0
9 1.1 0
9.3 1.1 0
9.6 1.1 0
9.9 1.1 0
10.2 1.1 0
10.5 1.1 0
10.8 1.1 0
11.1 1.1 0
11.4 1.1 0
11.7 1.1 0
12 1.1 0
12.3 1.1 0
12.6 1.1 0
12.9 1.1 0
13.2 1.1 0
13.5 1.1 0
13.8 1.1 0
14.1 1.1 0
14.4 1.1 0
14.7 1.1 0
15 1.1 0
15.3 1.1 0
15.6 1.1 0
15.9 1.1 0
16.2 1.1 0
16.5 1.1 0
16.8 1.1 0
17.1 1.1 0
17.4 1.1 0
17.7 1.1 0
18 1.1 0
18.3 1.1 0
18.6 1.1 0
18.9 1.1 0
19.2 1.1 0
19.5 1.1 0
19.8 1.1 0
20.1 1.1 0
20.4 1.1 0
20.7 1.1 0
21 1.1 0
21.3 1.1 0
21.6 1.1 0
21.9 1.1 0
22.2 1.1 0
22.5 1.1 0
22.8 1.1 0
23.1 1.1 0
23.4 1.1 0
23.7 1.1 0
24 1.1 0
24.3 1.1 0
24.6 1.1 0
24.9 1.1 0
25.2 1.1 0
25.5 1.1 0
25.8 1.1 0
26.1 1.1 0
26.4 1.1 0
26.7 1.1 0
27 1.1 0
27.3 1.1 0
27.6 1.1 0
27.9 1.1 0
28.2 1.1 0
28.5 1.1 0
28.8 1.1 0
29.1 1.1 0
29.4 1.1 0
29.7 1.1 0
30 1.1 0
30.3 1.1 0
0 1.2 0
0.3 1.2 0
0.6 1.2 0
0.9 1.2 0
1.2 1.2 0
1.5 1.2 0
1.8 1.2 0
2.1 1.2 0
2.4 1.2 0
2.7 1.2 0
3 1.2 0
3.3 1.2 0
3.6 1.2 0
3.9 1.2 0
4.2 1.2 0
4.5 1.2 0
4.8 1.2 0
5.1 1.2 0
5.4 1.2 0
5.7 1.2 0
6 1.2 0
6.3 1.2 0
6.6 1.2 0
6.9 1.2 0
7.2 1.2 0
7.5 1.2 0
7.8 1.2 0
8.1 1.2 0
8.4 1.2 0
8.7 1.2 0
9 1.2 0
9.3 1.2 0
9.6 1.2 0
9.9 1.2 0
10.2 1.2 0
10.5 1.2 0
10.8 1.2 0
11.1 1.2 0
11.4 1.2 0
11.7 1.2 0
12 1.2 0
12.3 1.2 0
12.6 1.2 0
12.9 1.2 0
13.2 1.2 0
13.5 1.2 0
13.8 1.2 0
14.1 1.2 0
14.4 1.2 0
14.7 1.2 0
15 1.2 0
15.3 1.2 0
15.6 1.2 0
15.9 1.2 0
16.2 1.2 0
16.5 1.2 0
16.8 1.2 0
17.1 1.2 0
17.4 1.2 0
17.7 1.2 0
18 1.2 0
18.3 1.2 0
18.6 1.2 0
18.9 1.2 0
19.2 1.2 0
19.5 1.2 0
19.8 1.2 0
20.1 1.2 0
20.4 1.2 0
20.7 1.2 0
21 1.2 0
21.3 1.2 0
21.6 1.2 0
21.9 1.2 0
22.2 1.2 0
22.5 1.2 0
22.8 1.2 0
23.1 1.2 0
23.4 1.2 0
23.7 1.2 0
24 1.2 0
24.3 1.2 0
24.6 1.2 0
24.9 1.2 0
25.2 1.2 0
25.5 1.2 0
25.8 1.2 0
26.1 1.2 0
26.4 1.2 0
26.7 1.2 0
27 1.2 0
27.3 1.2 0
27.6 1.2 0
27.9 1.2 0
28.2 1.2 0
28.5 1.2 0
28.8 1.2 0
29.1 1.2 0
29.4 1.2 0
29.7 1.2 0
30 1.2 0
30.3 1.2 0

POINT_DATA 1326

SCALARS phi double
LOOKUP_TABLE default
1
1
1
1
0.999999
0.999994
0.999983
0.999957
0.99991
0.99983
0.999706
0.999525
0.999278
0.998951
0.998536
0.998024
0.997407
0.996678
0.995834
0.994869
0.993783
0.992574
0.991241
0.989786
0.988211
0.986517
0.984708
0.982788
0.980761
0.97863
0.976402
0.97408
0.97167
0.969176
0.966604
0.963958
0.961243
0.958463
0.955621
0.952717
0.949751
0.946721
0.943621
0.940443
0.937175
0.933806
0.930317
0.926692
0.92291
0.91895
0.91479
0.910408
0.905783
0.900895
0.895724
0.890254
0.88447
0.87836
0.871912
0.865121
0.857982
0.850493
0.842654
0.834471
0.825947
0.817092
0.807914
0.798427
0.788642
0.778574
0.76824
0.757655
0.746838
0.735805
0.724574
0.713165
0.701595
0.689883
0.678047
0.666105
0.654073
0.641969
0.62981
0.61761
0.605386
0.593152
0.580921
0.568708
0.556523
0.54438
0.532289
0.52026
0.508303
0.496428
0.48464
0.472957
0.461353
0.449946
0.438355
0.427941
0.413877
0.413877
1
1
1
1
0.999999
0.999994
0.999983
0.999957
0.99991
0.99983
0.999706
0.999525
0.999278
0.998951
0.998536
0.998024
0.997407
0.996678
0.995834
0.994869
0.993783
0.992574
0.991241
0.989786
0.988211
0.986517
0.984708
0.982788
0.980761
0.97863
0.976402
0.97408
0.97167
0.969176
0.966604
0.963958
0.961243
0.958463
0.955621
0.952717
0.949751
0.946721
0.943621
0.940443
0.937175
0.933806
0.930317
0.926692
0.92291
0.91895
0.91479
0.910408
0.905783
0.900895
0.895724
0.890254
0.88447
0.87836
0.871912
0.865121
0.857982
0.850493
0.842654
0.834471
0.825947
0.817092
0.807914
0.798427
0.788642
0.778574
0.76824
0.757655
0.746838
0.735805
0.724574
0.713165
0.701595
0.689883
0.678047
0.666105
0.654073
0.641969
0.62981
0.61761
0.605386
0.593152
0.580921
0.568708
0.556523
0.54438
0.532289
0.52026
0.508303
0.496428
0.48464
0.472957
0.461353
0.449946
0.438355
0.427941
0.413877
0.413877
1
1
1
0.999996
0.999983
0.999954
0.999898
0.999804
0.999658
0.999446
0.999157
0.998778
0.998299
0.997714
0.997014
0.996196
0.995256
0.994192
0.993003
0.991689
0.990252
0.988694
0.987016
0.985224
0.983319
0.981307
0.979192
0.976979
0.974671
0.972276
0.969796
0.967238
0.964606
0.961906
0.959141
0.956318
0.953439
0.950511
0.947535
0.944516
0.941456
0.938357
0.935217
0.932036
0.92881
0.925534
0.9222
0.9188
0.915322
0.911754
0.908081
0.904287
0.900358
0.896275
0.892022
0.887583
0.882941
0.87808
0.872988
0.867652
0.86206
0.856204
0.850076
0.84367
0.836984
0.830016
0.822766
0.815236
0.80743
0.799353
0.791013
0.782417
0.773576
0.764498
0.755196
0.745681
0.735967
0.726066
0.715992
0.705758
0.695379
0.684868
0.674239
0.663507
0.652684
0.641784
0.63082
0.619805
0.60875
0.597669
0.586572
0.57547
0.564374
0.553294
0.542236
0.531222
0.520218
0.509375
0.498219
0.488372
0.474436
0.474436
0.999997
1
0.99998
0.999896
0.999724
0.999434
0.998999
0.998397
0.997613
0.996636
0.995464
0.994099
0.992547
0.990816
0.988916
0.986859
0.984655
0.982317
0.979854
0.977278
0.974598
0.971826
0.968969
0.966037
0.963036
0.959976
0.956862
0.953702
0.9505
0.947262
0.943993
0.940698
0.937381
0.934046
0.930696
0.927335
0.923965
0.920589
0.917211
0.913831
0.910452
0.907075
0.903702
0.900332
0.896965
0.893601
0.890237
0.88687
0.883497
0.880112
0.876708
0.873279
0.869816
0.86631
0.862751
0.859127
0.855428
0.851642
0.847757
0.843761
0.839644
0.835393
0.830998
0.82645
0.821739
0.816857
0.811798
0.806554
0.801121
0.795495
0.789673
0.783654
0.777437
0.771023
0.764413
0.75761
0.750617
0.743438
0.736079
0.728545
0.720843
0.712979
0.70496
0.696795
0.688491
0.680057
0.671501
0.662832
0.654058
0.645188
0.636231
0.627196
0.618091
0.608926
0.599704
0.590449
0.581121
0.57188
0.562242
0.553794
0.541483
0.541483
0.999999
1
0.99943
0.998224
0.996402
0.994008
0.991093
0.987716
0.983939
0.979828
0.975446
0.970853
0.966102
0.961239
0.9563
0.951318
0.946317
0.94132
0.936342
0.931396
0.926494
0.921643
0.91685
0.91212
0.907456
0.902862
0.898338
0.893885
0.889504
0.885196
0.880959
0.876793
0.872697
0.868669
0.86471
0.860816
0.856986
0.85322
0.849516
0.845871
0.842285
0.838755
0.835281
0.83186
0.828491
0.825171
0.821899
0.818672
0.815488
0.812343
0.809234
0.806157
0.803109
0.800083
0.797075
0.79408
0.79109
0.788099
0.7851
0.782085
0.779047
0.775978
0.772869
0.769713
0.7665
0.763224
0.759875
0.756447
0.752933
0.749324
0.745615
0.7418
0.737873
0.733829
0.729664
0.725374
0.720956
0.716407
0.711727
0.706912
0.701963
0.69688
0.691662
0.686312
0.680829
0.675216
0.669476
0.663611
0.657624
0.651518
0.645297
0.638966
0.632527
0.625986
0.619344
0.612618
0.605771
0.59894
0.591718
0.585394
0.575958
0.575958
1.00149
0.998508
0.989831
0.978334
0.965614
0.952521
0.939508
0.926817
0.914586
0.90289
0.891766
0.881225
0.871261
0.861853
0.852973
0.844592
0.836675
0.829189
0.822103
0.815387
0.809012
0.802953
0.797186
0.791689
0.786442
0.781426
0.776627
0.772028
0.767615
0.763377
0.759301
0.755378
0.751598
0.747951
0.74443
0.741028
0.737737
0.734551
0.731464
0.728471
0.725567
0.722746
0.720006
0.717341
0.714748
0.712224
0.709764
0.707365
0.705025
0.70274
0.700508
0.698324
0.696187
0.694092
0.692038
0.690019
0.688033
0.686077
0.684145
0.682234
0.68034
0.678458
0.676583
0.674711
0.672836
0.670953
0.669057
0.667142
0.665204
0.663235
0.661232
0.659188
0.657098
0.654957
0.65276
0.650502
0.648178
0.645783
0.643314
0.640766
0.638136
0.635419
0.632614
0.629717
0.626726
0.623638
0.620451
0.617165
0.613777
0.610286
0.606692
0.602995
0.599194
0.595289
0.591279
0.587173
0.582942
0.578679
0.5741
0.570086
0.563936
0.563936
1.04825
0.951752
0.875703
0.818253
0.774815
0.7415
0.715492
0.694815
0.678089
0.664344
0.652885
0.64321
0.634947
0.627818
0.62161
0.616159
0.611336
0.607038
0.603184
0.599708
0.596557
0.593685
0.591057
0.588642
0.586414
0.584353
0.582438
0.580656
0.578992
0.577435
0.575975
0.574602
0.57331
0.572092
0.57094
0.569851
0.56882
0.567842
0.566913
0.56603
0.56519
0.56439
0.563628
0.562901
0.562207
0.561545
0.560911
0.560306
0.559726
0.559172
0.55864
0.558131
0.557642
0.557172
0.55672
0.556285
0.555865
0.555459
0.555065
0.554682
0.554308
0.553941
0.553579
0.55322
0.552862
0.552502
0.552139
0.551769
0.55139
0.550998
0.550591
0.550165
0.549717
0.549244
0.548743
0.548209
0.547639
0.54703
0.546378
0.545679
0.54493
0.544127
0.543266
0.542345
0.541358
0.540304
0.539179
0.537979
0.536701
0.535343
0.533902
0.532375
0.530759
0.529052
0.52725
0.525357
0.523353
0.521291
0.519004
0.516985
0.513748
0.513748
-0.0446953
0.0446953
0.107508
0.152458
0.185771
0.211397
0.231802
0.248527
0.262546
0.274503
0.284836
0.293865
0.301831
0.308922
0.315285
0.32104
0.326285
0.331098
0.335543
0.339671
0.343527
0.347145
0.350555
0.353783
0.356847
0.359768
0.362558
0.365231
0.367799
0.37027
0.372653
0.374956
0.377185
0.379346
0.381443
0.383482
0.385467
0.387401
0.389287
0.39113
0.392931
0.394693
0.396418
0.398109
0.399767
0.401394
0.402992
0.404563
0.406107
0.407625
0.40912
0.410592
0.412042
0.413471
0.41488
0.416268
0.417638
0.418989
0.420322
0.421636
0.422933
0.424212
0.425473
0.426716
0.427941
0.429146
0.430332
0.431497
0.432642
0.433763
0.434861
0.435934
0.43698
0.437998
0.438985
0.439939
0.440859
0.441741
0.442584
0.443384
0.444139
0.444846
0.445501
0.446102
0.446645
0.447127
0.447545
0.447895
0.448175
0.448379
0.448505
0.44855
0.44851
0.448381
0.44816
0.447846
0.447427
0.446926
0.446263
0.445655
0.44448
0.44448
-0.00141662
0.00141662
0.00819779
0.0166628
0.0258774
0.0354226
0.0450904
0.0547523
0.0643113
0.0736887
0.0828235
0.0916734
0.100213
0.108431
0.116327
0.123909
0.131188
0.138179
0.144897
0.15136
0.157583
0.163582
0.169371
0.174965
0.180376
0.185617
0.190698
0.19563
0.200421
0.205082
0.20962
0.214041
0.218354
0.222564
0.226678
0.230699
0.234634
0.238487
0.242262
0.245962
0.249592
0.253155
0.256653
0.260089
0.263467
0.266788
0.270055
0.273269
0.276433
0.279548
0.282617
0.28564
0.288619
0.291555
0.29445
0.297304
0.300118
0.302894
0.305632
0.308333
0.310997
0.313625
0.316216
0.318771
0.321291
0.323774
0.326221
0.328631
0.331003
0.333336
0.335631
0.337884
0.340096
0.342264
0.344387
0.346462
0.348488
0.350463
0.352384
0.354248
0.356053
0.357796
0.359473
0.361082
0.362619
0.364081
0.365465
0.366767
0.367982
0.369109
0.370142
0.371079
0.371915
0.372647
0.373271
0.373785
0.374181
0.374468
0.374608
0.37469
0.374489
0.374489
-1.11745e-05
1.11745e-05
0.00042735
0.00124909
0.0024865
0.00414882
0.00623841
0.00874491
0.0116437
0.0148985
0.0184666
0.0223034
0.0263657
0.0306143
0.0350145
0.0395361
0.0441535
0.0488449
0.0535919
0.058379
0.0631933
0.0680237
0.0728611
0.0776978
0.0825273
0.0873441
0.0921438
0.0969225
0.101677
0.106404
0.111102
0.115769
0.120403
0.125002
0.129567
0.134094
0.138584
0.143036
0.14745
0.151824
0.156158
0.160453
0.164707
0.16892
0.173093
0.177225
0.181316
0.185366
0.189375
0.193343
0.19727
0.201155
0.204999
0.208802
0.212564
0.216284
0.219962
0.223599
0.227193
0.230744
0.234251
0.237714
0.241133
0.244505
0.24783
0.251107
0.254334
0.25751
0.260632
0.263699
0.266708
0.269658
0.272546
0.275369
0.278124
0.280809
0.283421
0.285955
0.28841
0.290781
0.293065
0.295259
0.297359
0.29936
0.30126
0.303055
0.304741
0.306314
0.30777
0.309106
0.310319
0.311404
0.312359
0.31318
0.313864
0.314408
0.314806
0.31507
0.315154
0.315174
0.314826
0.314826
1.77951e-06
-1.77951e-06
1.46452e-05
7.0561e-05
0.000191297
0.000407207
0.000751293
0.00125576
0.0019487
0.0028519
0.00398018
0.00534174
0.00693923
0.00877085
0.0108314
0.0131134
0.0156072
0.0183022
0.021187
0.0242496
0.0274776
0.0308589
0.0343811
0.0380325
0.0418013
0.0456763
0.0496469
0.0537026
0.0578339
0.0620314
0.0662865
0.070591
0.0749374
0.0793184
0.0837274
0.0881583
0.0926054
0.0970633
0.101527
0.105993
0.110455
0.114912
0.119358
0.123791
0.128208
0.132606
0.136983
0.141337
0.145665
0.149965
0.154235
0.158474
0.16268
0.166851
0.170985
0.175081
0.179137
0.18315
0.187118
0.191041
0.194914
0.198735
0.202503
0.206214
0.209865
0.213453
0.216975
0.220427
0.223806
0.227108
0.230329
0.233465
0.236512
0.239467
0.242324
0.24508
0.247731
0.250271
0.252698
0.255006
0.257192
0.25925
0.261179
0.262972
0.264628
0.266141
0.267508
0.268727
0.269793
0.270705
0.271458
0.272051
0.272481
0.272747
0.272846
0.272778
0.272536
0.272141
0.27152
0.270897
0.269599
0.269599
1.29312e-07
-1.29312e-07
2.38864e-07
4.46745e-06
2.01123e-05
6.11026e-05
0.000148704
0.000310434
0.000577097
0.000979211
0.00154414
0.00229449
0.0032476
0.00441569
0.00580634
0.007423
0.00926563
0.0113312
0.0136141
0.0161068
0.0188002
0.0216839
0.0247467
0.027977
0.0313627
0.0348917
0.038552
0.0423319
0.0462198
0.0502049
0.0542764
0.0584245
0.0626397
0.0669129
0.0712358
0.0756005
0.0799998
0.0844268
0.0888753
0.0933393
0.0978135
0.102293
0.106773
0.111249
0.115718
0.120175
0.124618
0.129043
0.133447
0.137828
0.142182
0.146506
0.150798
0.155055
0.159274
0.163452
0.167585
0.171672
0.175707
0.179688
0.18361
0.187471
0.191265
0.194988
0.198637
0.202206
0.20569
0.209086
0.212387
0.21559
0.218689
0.221679
0.224555
0.227312
0.229946
0.23245
0.234822
0.237056
0.239147
0.241091
0.242884
0.244523
0.246002
0.247319
0.248471
0.249454
0.250266
0.250904
0.251366
0.251649
0.251754
0.251678
0.25142
0.25098
0.250358
0.249555
0.248565
0.247414
0.246018
0.244659
0.24241
0.24241
1.29312e-07
-1.29312e-07
2.38864e-07
4.46745e-06
2.01123e-05
6.11026e-05
0.000148704
0.000310434
0.000577097
0.000979211
0.00154414
0.00229449
0.0032476
0.00441569
0.00580634
0.007423
0.00926563
0.0113312
0.0136141
0.0161068
0.0188002
0.0216839
0.0247467
0.027977
0.0313627
0.0348917
0.038552
0.0423319
0.0462198
0.0502049
0.0542764
0.0584245
0.0626397
0.0669129
0.0712358
0.0756005
0.0799998
0.0844268
0.0888753
0.0933393
0.0978135
0.102293
0.106773
0.111249
0.115718
0.120175
0.124618
0.129043
0.133447
0.137828
0.142182
0.146506
0.150798
0.155055
0.159274
0.163452
0.167585
0.171672
0.175707
0.179688
0.18361
0.187471
0.191265
0.194988
0.198637
0.202206
0.20569
0.209086
0.212387
0.21559
0.218689
0.221679
0.224555
0.227312
0.229946
0.23245
0.234822
0.237056
0.239147
0.241091
0.242884
0.244523
0.246002
0.247319
0.248471
0.249454
0.250266
0.250904
0.251366
0.251649
0.251754
0.251678
0.25142
0.25098
0.250358
0.249555
0.248565
0.247414
0.246018
0.244659
0.24241
0.24241
