# vtk DataFile Version 2.0
FlowField
ASCII
DATASET STRUCTURED_GRID
DIMENSIONS 102 1 12 
POINTS 1224 double
0 0 0
0.4 0 0
0.8 0 0
1.2 0 0
1.6 0 0
2 0 0
2.4 0 0
2.8 0 0
3.2 0 0
3.6 0 0
4 0 0
4.4 0 0
4.8 0 0
5.2 0 0
5.6 0 0
6 0 0
6.4 0 0
6.8 0 0
7.2 0 0
7.6 0 0
8 0 0
8.4 0 0
8.8 0 0
9.2 0 0
9.6 0 0
10 0 0
10.4 0 0
10.8 0 0
11.2 0 0
11.6 0 0
12 0 0
12.4 0 0
12.8 0 0
13.2 0 0
13.6 0 0
14 0 0
14.4 0 0
14.8 0 0
15.2 0 0
15.6 0 0
16 0 0
16.4 0 0
16.8 0 0
17.2 0 0
17.6 0 0
18 0 0
18.4 0 0
18.8 0 0
19.2 0 0
19.6 0 0
20 0 0
20.4 0 0
20.8 0 0
21.2 0 0
21.6 0 0
22 0 0
22.4 0 0
22.8 0 0
23.2 0 0
23.6 0 0
24 0 0
24.4 0 0
24.8 0 0
25.2 0 0
25.6 0 0
26 0 0
26.4 0 0
26.8 0 0
27.2 0 0
27.6 0 0
28 0 0
28.4 0 0
28.8 0 0
29.2 0 0
29.6 0 0
30 0 0
30.4 0 0
30.8 0 0
31.2 0 0
31.6 0 0
32 0 0
32.4 0 0
32.8 0 0
33.2 0 0
33.6 0 0
34 0 0
34.4 0 0
34.8 0 0
35.2 0 0
35.6 0 0
36 0 0
36.4 0 0
36.8 0 0
37.2 0 0
37.6 0 0
38 0 0
38.4 0 0
38.8 0 0
39.2 0 0
39.6 0 0
40 0 0
40.4 0 0
0 0.1 0
0.4 0.1 0
0.8 0.1 0
1.2 0.1 0
1.6 0.1 0
2 0.1 0
2.4 0.1 0
2.8 0.1 0
3.2 0.1 0
3.6 0.1 0
4 0.1 0
4.4 0.1 0
4.8 0.1 0
5.2 0.1 0
5.6 0.1 0
6 0.1 0
6.4 0.1 0
6.8 0.1 0
7.2 0.1 0
7.6 0.1 0
8 0.1 0
8.4 0.1 0
8.8 0.1 0
9.2 0.1 0
9.6 0.1 0
10 0.1 0
10.4 0.1 0
10.8 0.1 0
11.2 0.1 0
11.6 0.1 0
12 0.1 0
12.4 0.1 0
12.8 0.1 0
13.2 0.1 0
13.6 0.1 0
14 0.1 0
14.4 0.1 0
14.8 0.1 0
15.2 0.1 0
15.6 0.1 0
16 0.1 0
16.4 0.1 0
16.8 0.1 0
17.2 0.1 0
17.6 0.1 0
18 0.1 0
18.4 0.1 0
18.8 0.1 0
19.2 0.1 0
19.6 0.1 0
20 0.1 0
20.4 0.1 0
20.8 0.1 0
21.2 0.1 0
21.6 0.1 0
22 0.1 0
22.4 0.1 0
22.8 0.1 0
23.2 0.1 0
23.6 0.1 0
24 0.1 0
24.4 0.1 0
24.8 0.1 0
25.2 0.1 0
25.6 0.1 0
26 0.1 0
26.4 0.1 0
26.8 0.1 0
27.2 0.1 0
27.6 0.1 0
28 0.1 0
28.4 0.1 0
28.8 0.1 0
29.2 0.1 0
29.6 0.1 0
30 0.1 0
30.4 0.1 0
30.8 0.1 0
31.2 0.1 0
31.6 0.1 0
32 0.1 0
32.4 0.1 0
32.8 0.1 0
33.2 0.1 0
33.6 0.1 0
34 0.1 0
34.4 0.1 0
34.8 0.1 0
35.2 0.1 0
35.6 0.1 0
36 0.1 0
36.4 0.1 0
36.8 0.1 0
37.2 0.1 0
37.6 0.1 0
38 0.1 0
38.4 0.1 0
38.8 0.1 0
39.2 0.1 0
39.6 0.1 0
40 0.1 0
40.4 0.1 0
0 0.2 0
0.4 0.2 0
0.8 0.2 0
1.2 0.2 0
1.6 0.2 0
2 0.2 0
2.4 0.2 0
2.8 0.2 0
3.2 0.2 0
3.6 0.2 0
4 0.2 0
4.4 0.2 0
4.8 0.2 0
5.2 0.2 0
5.6 0.2 0
6 0.2 0
6.4 0.2 0
6.8 0.2 0
7.2 0.2 0
7.6 0.2 0
8 0.2 0
8.4 0.2 0
8.8 0.2 0
9.2 0.2 0
9.6 0.2 0
10 0.2 0
10.4 0.2 0
10.8 0.2 0
11.2 0.2 0
11.6 0.2 0
12 0.2 0
12.4 0.2 0
12.8 0.2 0
13.2 0.2 0
13.6 0.2 0
14 0.2 0
14.4 0.2 0
14.8 0.2 0
15.2 0.2 0
15.6 0.2 0
16 0.2 0
16.4 0.2 0
16.8 0.2 0
17.2 0.2 0
17.6 0.2 0
18 0.2 0
18.4 0.2 0
18.8 0.2 0
19.2 0.2 0
19.6 0.2 0
20 0.2 0
20.4 0.2 0
20.8 0.2 0
21.2 0.2 0
21.6 0.2 0
22 0.2 0
22.4 0.2 0
22.8 0.2 0
23.2 0.2 0
23.6 0.2 0
24 0.2 0
24.4 0.2 0
24.8 0.2 0
25.2 0.2 0
25.6 0.2 0
26 0.2 0
26.4 0.2 0
26.8 0.2 0
27.2 0.2 0
27.6 0.2 0
28 0.2 0
28.4 0.2 0
28.8 0.2 0
29.2 0.2 0
29.6 0.2 0
30 0.2 0
30.4 0.2 0
30.8 0.2 0
31.2 0.2 0
31.6 0.2 0
32 0.2 0
32.4 0.2 0
32.8 0.2 0
33.2 0.2 0
33.6 0.2 0
34 0.2 0
34.4 0.2 0
34.8 0.2 0
35.2 0.2 0
35.6 0.2 0
36 0.2 0
36.4 0.2 0
36.8 0.2 0
37.2 0.2 0
37.6 0.2 0
38 0.2 0
38.4 0.2 0
38.8 0.2 0
39.2 0.2 0
39.6 0.2 0
40 0.2 0
40.4 0.2 0
0 0.3 0
0.4 0.3 0
0.8 0.3 0
1.2 0.3 0
1.6 0.3 0
2 0.3 0
2.4 0.3 0
2.8 0.3 0
3.2 0.3 0
3.6 0.3 0
4 0.3 0
4.4 0.3 0
4.8 0.3 0
5.2 0.3 0
5.6 0.3 0
6 0.3 0
6.4 0.3 0
6.8 0.3 0
7.2 0.3 0
7.6 0.3 0
8 0.3 0
8.4 0.3 0
8.8 0.3 0
9.2 0.3 0
9.6 0.3 0
10 0.3 0
10.4 0.3 0
10.8 0.3 0
11.2 0.3 0
11.6 0.3 0
12 0.3 0
12.4 0.3 0
12.8 0.3 0
13.2 0.3 0
13.6 0.3 0
14 0.3 0
14.4 0.3 0
14.8 0.3 0
15.2 0.3 0
15.6 0.3 0
16 0.3 0
16.4 0.3 0
16.8 0.3 0
17.2 0.3 0
17.6 0.3 0
18 0.3 0
18.4 0.3 0
18.8 0.3 0
19.2 0.3 0
19.6 0.3 0
20 0.3 0
20.4 0.3 0
20.8 0.3 0
21.2 0.3 0
21.6 0.3 0
22 0.3 0
22.4 0.3 0
22.8 0.3 0
23.2 0.3 0
23.6 0.3 0
24 0.3 0
24.4 0.3 0
24.8 0.3 0
25.2 0.3 0
25.6 0.3 0
26 0.3 0
26.4 0.3 0
26.8 0.3 0
27.2 0.3 0
27.6 0.3 0
28 0.3 0
28.4 0.3 0
28.8 0.3 0
29.2 0.3 0
29.6 0.3 0
30 0.3 0
30.4 0.3 0
30.8 0.3 0
31.2 0.3 0
31.6 0.3 0
32 0.3 0
32.4 0.3 0
32.8 0.3 0
33.2 0.3 0
33.6 0.3 0
34 0.3 0
34.4 0.3 0
34.8 0.3 0
35.2 0.3 0
35.6 0.3 0
36 0.3 0
36.4 0.3 0
36.8 0.3 0
37.2 0.3 0
37.6 0.3 0
38 0.3 0
38.4 0.3 0
38.8 0.3 0
39.2 0.3 0
39.6 0.3 0
40 0.3 0
40.4 0.3 0
0 0.4 0
0.4 0.4 0
0.8 0.4 0
1.2 0.4 0
1.6 0.4 0
2 0.4 0
2.4 0.4 0
2.8 0.4 0
3.2 0.4 0
3.6 0.4 0
4 0.4 0
4.4 0.4 0
4.8 0.4 0
5.2 0.4 0
5.6 0.4 0
6 0.4 0
6.4 0.4 0
6.8 0.4 0
7.2 0.4 0
7.6 0.4 0
8 0.4 0
8.4 0.4 0
8.8 0.4 0
9.2 0.4 0
9.6 0.4 0
10 0.4 0
10.4 0.4 0
10.8 0.4 0
11.2 0.4 0
11.6 0.4 0
12 0.4 0
12.4 0.4 0
12.8 0.4 0
13.2 0.4 0
13.6 0.4 0
14 0.4 0
14.4 0.4 0
14.8 0.4 0
15.2 0.4 0
15.6 0.4 0
16 0.4 0
16.4 0.4 0
16.8 0.4 0
17.2 0.4 0
17.6 0.4 0
18 0.4 0
18.4 0.4 0
18.8 0.4 0
19.2 0.4 0
19.6 0.4 0
20 0.4 0
20.4 0.4 0
20.8 0.4 0
21.2 0.4 0
21.6 0.4 0
22 0.4 0
22.4 0.4 0
22.8 0.4 0
23.2 0.4 0
23.6 0.4 0
24 0.4 0
24.4 0.4 0
24.8 0.4 0
25.2 0.4 0
25.6 0.4 0
26 0.4 0
26.4 0.4 0
26.8 0.4 0
27.2 0.4 0
27.6 0.4 0
28 0.4 0
28.4 0.4 0
28.8 0.4 0
29.2 0.4 0
29.6 0.4 0
30 0.4 0
30.4 0.4 0
30.8 0.4 0
31.2 0.4 0
31.6 0.4 0
32 0.4 0
32.4 0.4 0
32.8 0.4 0
33.2 0.4 0
33.6 0.4 0
34 0.4 0
34.4 0.4 0
34.8 0.4 0
35.2 0.4 0
35.6 0.4 0
36 0.4 0
36.4 0.4 0
36.8 0.4 0
37.2 0.4 0
37.6 0.4 0
38 0.4 0
38.4 0.4 0
38.8 0.4 0
39.2 0.4 0
39.6 0.4 0
40 0.4 0
40.4 0.4 0
0 0.5 0
0.4 0.5 0
0.8 0.5 0
1.2 0.5 0
1.6 0.5 0
2 0.5 0
2.4 0.5 0
2.8 0.5 0
3.2 0.5 0
3.6 0.5 0
4 0.5 0
4.4 0.5 0
4.8 0.5 0
5.2 0.5 0
5.6 0.5 0
6 0.5 0
6.4 0.5 0
6.8 0.5 0
7.2 0.5 0
7.6 0.5 0
8 0.5 0
8.4 0.5 0
8.8 0.5 0
9.2 0.5 0
9.6 0.5 0
10 0.5 0
10.4 0.5 0
10.8 0.5 0
11.2 0.5 0
11.6 0.5 0
12 0.5 0
12.4 0.5 0
12.8 0.5 0
13.2 0.5 0
13.6 0.5 0
14 0.5 0
14.4 0.5 0
14.8 0.5 0
15.2 0.5 0
15.6 0.5 0
16 0.5 0
16.4 0.5 0
16.8 0.5 0
17.2 0.5 0
17.6 0.5 0
18 0.5 0
18.4 0.5 0
18.8 0.5 0
19.2 0.5 0
19.6 0.5 0
20 0.5 0
20.4 0.5 0
20.8 0.5 0
21.2 0.5 0
21.6 0.5 0
22 0.5 0
22.4 0.5 0
22.8 0.5 0
23.2 0.5 0
23.6 0.5 0
24 0.5 0
24.4 0.5 0
24.8 0.5 0
25.2 0.5 0
25.6 0.5 0
26 0.5 0
26.4 0.5 0
26.8 0.5 0
27.2 0.5 0
27.6 0.5 0
28 0.5 0
28.4 0.5 0
28.8 0.5 0
29.2 0.5 0
29.6 0.5 0
30 0.5 0
30.4 0.5 0
30.8 0.5 0
31.2 0.5 0
31.6 0.5 0
32 0.5 0
32.4 0.5 0
32.8 0.5 0
33.2 0.5 0
33.6 0.5 0
34 0.5 0
34.4 0.5 0
34.8 0.5 0
35.2 0.5 0
35.6 0.5 0
36 0.5 0
36.4 0.5 0
36.8 0.5 0
37.2 0.5 0
37.6 0.5 0
38 0.5 0
38.4 0.5 0
38.8 0.5 0
39.2 0.5 0
39.6 0.5 0
40 0.5 0
40.4 0.5 0
0 0.6 0
0.4 0.6 0
0.8 0.6 0
1.2 0.6 0
1.6 0.6 0
2 0.6 0
2.4 0.6 0
2.8 0.6 0
3.2 0.6 0
3.6 0.6 0
4 0.6 0
4.4 0.6 0
4.8 0.6 0
5.2 0.6 0
5.6 0.6 0
6 0.6 0
6.4 0.6 0
6.8 0.6 0
7.2 0.6 0
7.6 0.6 0
8 0.6 0
8.4 0.6 0
8.8 0.6 0
9.2 0.6 0
9.6 0.6 0
10 0.6 0
10.4 0.6 0
10.8 0.6 0
11.2 0.6 0
11.6 0.6 0
12 0.6 0
12.4 0.6 0
12.8 0.6 0
13.2 0.6 0
13.6 0.6 0
14 0.6 0
14.4 0.6 0
14.8 0.6 0
15.2 0.6 0
15.6 0.6 0
16 0.6 0
16.4 0.6 0
16.8 0.6 0
17.2 0.6 0
17.6 0.6 0
18 0.6 0
18.4 0.6 0
18.8 0.6 0
19.2 0.6 0
19.6 0.6 0
20 0.6 0
20.4 0.6 0
20.8 0.6 0
21.2 0.6 0
21.6 0.6 0
22 0.6 0
22.4 0.6 0
22.8 0.6 0
23.2 0.6 0
23.6 0.6 0
24 0.6 0
24.4 0.6 0
24.8 0.6 0
25.2 0.6 0
25.6 0.6 0
26 0.6 0
26.4 0.6 0
26.8 0.6 0
27.2 0.6 0
27.6 0.6 0
28 0.6 0
28.4 0.6 0
28.8 0.6 0
29.2 0.6 0
29.6 0.6 0
30 0.6 0
30.4 0.6 0
30.8 0.6 0
31.2 0.6 0
31.6 0.6 0
32 0.6 0
32.4 0.6 0
32.8 0.6 0
33.2 0.6 0
33.6 0.6 0
34 0.6 0
34.4 0.6 0
34.8 0.6 0
35.2 0.6 0
35.6 0.6 0
36 0.6 0
36.4 0.6 0
36.8 0.6 0
37.2 0.6 0
37.6 0.6 0
38 0.6 0
38.4 0.6 0
38.8 0.6 0
39.2 0.6 0
39.6 0.6 0
40 0.6 0
40.4 0.6 0
0 0.7 0
0.4 0.7 0
0.8 0.7 0
1.2 0.7 0
1.6 0.7 0
2 0.7 0
2.4 0.7 0
2.8 0.7 0
3.2 0.7 0
3.6 0.7 0
4 0.7 0
4.4 0.7 0
4.8 0.7 0
5.2 0.7 0
5.6 0.7 0
6 0.7 0
6.4 0.7 0
6.8 0.7 0
7.2 0.7 0
7.6 0.7 0
8 0.7 0
8.4 0.7 0
8.8 0.7 0
9.2 0.7 0
9.6 0.7 0
10 0.7 0
10.4 0.7 0
10.8 0.7 0
11.2 0.7 0
11.6 0.7 0
12 0.7 0
12.4 0.7 0
12.8 0.7 0
13.2 0.7 0
13.6 0.7 0
14 0.7 0
14.4 0.7 0
14.8 0.7 0
15.2 0.7 0
15.6 0.7 0
16 0.7 0
16.4 0.7 0
16.8 0.7 0
17.2 0.7 0
17.6 0.7 0
18 0.7 0
18.4 0.7 0
18.8 0.7 0
19.2 0.7 0
19.6 0.7 0
20 0.7 0
20.4 0.7 0
20.8 0.7 0
21.2 0.7 0
21.6 0.7 0
22 0.7 0
22.4 0.7 0
22.8 0.7 0
23.2 0.7 0
23.6 0.7 0
24 0.7 0
24.4 0.7 0
24.8 0.7 0
25.2 0.7 0
25.6 0.7 0
26 0.7 0
26.4 0.7 0
26.8 0.7 0
27.2 0.7 0
27.6 0.7 0
28 0.7 0
28.4 0.7 0
28.8 0.7 0
29.2 0.7 0
29.6 0.7 0
30 0.7 0
30.4 0.7 0
30.8 0.7 0
31.2 0.7 0
31.6 0.7 0
32 0.7 0
32.4 0.7 0
32.8 0.7 0
33.2 0.7 0
33.6 0.7 0
34 0.7 0
34.4 0.7 0
34.8 0.7 0
35.2 0.7 0
35.6 0.7 0
36 0.7 0
36.4 0.7 0
36.8 0.7 0
37.2 0.7 0
37.6 0.7 0
38 0.7 0
38.4 0.7 0
38.8 0.7 0
39.2 0.7 0
39.6 0.7 0
40 0.7 0
40.4 0.7 0
0 0.8 0
0.4 0.8 0
0.8 0.8 0
1.2 0.8 0
1.6 0.8 0
2 0.8 0
2.4 0.8 0
2.8 0.8 0
3.2 0.8 0
3.6 0.8 0
4 0.8 0
4.4 0.8 0
4.8 0.8 0
5.2 0.8 0
5.6 0.8 0
6 0.8 0
6.4 0.8 0
6.8 0.8 0
7.2 0.8 0
7.6 0.8 0
8 0.8 0
8.4 0.8 0
8.8 0.8 0
9.2 0.8 0
9.6 0.8 0
10 0.8 0
10.4 0.8 0
10.8 0.8 0
11.2 0.8 0
11.6 0.8 0
12 0.8 0
12.4 0.8 0
12.8 0.8 0
13.2 0.8 0
13.6 0.8 0
14 0.8 0
14.4 0.8 0
14.8 0.8 0
15.2 0.8 0
15.6 0.8 0
16 0.8 0
16.4 0.8 0
16.8 0.8 0
17.2 0.8 0
17.6 0.8 0
18 0.8 0
18.4 0.8 0
18.8 0.8 0
19.2 0.8 0
19.6 0.8 0
20 0.8 0
20.4 0.8 0
20.8 0.8 0
21.2 0.8 0
21.6 0.8 0
22 0.8 0
22.4 0.8 0
22.8 0.8 0
23.2 0.8 0
23.6 0.8 0
24 0.8 0
24.4 0.8 0
24.8 0.8 0
25.2 0.8 0
25.6 0.8 0
26 0.8 0
26.4 0.8 0
26.8 0.8 0
27.2 0.8 0
27.6 0.8 0
28 0.8 0
28.4 0.8 0
28.8 0.8 0
29.2 0.8 0
29.6 0.8 0
30 0.8 0
30.4 0.8 0
30.8 0.8 0
31.2 0.8 0
31.6 0.8 0
32 0.8 0
32.4 0.8 0
32.8 0.8 0
33.2 0.8 0
33.6 0.8 0
34 0.8 0
34.4 0.8 0
34.8 0.8 0
35.2 0.8 0
35.6 0.8 0
36 0.8 0
36.4 0.8 0
36.8 0.8 0
37.2 0.8 0
37.6 0.8 0
38 0.8 0
38.4 0.8 0
38.8 0.8 0
39.2 0.8 0
39.6 0.8 0
40 0.8 0
40.4 0.8 0
0 0.9 0
0.4 0.9 0
0.8 0.9 0
1.2 0.9 0
1.6 0.9 0
2 0.9 0
2.4 0.9 0
2.8 0.9 0
3.2 0.9 0
3.6 0.9 0
4 0.9 0
4.4 0.9 0
4.8 0.9 0
5.2 0.9 0
5.6 0.9 0
6 0.9 0
6.4 0.9 0
6.8 0.9 0
7.2 0.9 0
7.6 0.9 0
8 0.9 0
8.4 0.9 0
8.8 0.9 0
9.2 0.9 0
9.6 0.9 0
10 0.9 0
10.4 0.9 0
10.8 0.9 0
11.2 0.9 0
11.6 0.9 0
12 0.9 0
12.4 0.9 0
12.8 0.9 0
13.2 0.9 0
13.6 0.9 0
14 0.9 0
14.4 0.9 0
14.8 0.9 0
15.2 0.9 0
15.6 0.9 0
16 0.9 0
16.4 0.9 0
16.8 0.9 0
17.2 0.9 0
17.6 0.9 0
18 0.9 0
18.4 0.9 0
18.8 0.9 0
19.2 0.9 0
19.6 0.9 0
20 0.9 0
20.4 0.9 0
20.8 0.9 0
21.2 0.9 0
21.6 0.9 0
22 0.9 0
22.4 0.9 0
22.8 0.9 0
23.2 0.9 0
23.6 0.9 0
24 0.9 0
24.4 0.9 0
24.8 0.9 0
25.2 0.9 0
25.6 0.9 0
26 0.9 0
26.4 0.9 0
26.8 0.9 0
27.2 0.9 0
27.6 0.9 0
28 0.9 0
28.4 0.9 0
28.8 0.9 0
29.2 0.9 0
29.6 0.9 0
30 0.9 0
30.4 0.9 0
30.8 0.9 0
31.2 0.9 0
31.6 0.9 0
32 0.9 0
32.4 0.9 0
32.8 0.9 0
33.2 0.9 0
33.6 0.9 0
34 0.9 0
34.4 0.9 0
34.8 0.9 0
35.2 0.9 0
35.6 0.9 0
36 0.9 0
36.4 0.9 0
36.8 0.9 0
37.2 0.9 0
37.6 0.9 0
38 0.9 0
38.4 0.9 0
38.8 0.9 0
39.2 0.9 0
39.6 0.9 0
40 0.9 0
40.4 0.9 0
0 1 0
0.4 1 0
0.8 1 0
1.2 1 0
1.6 1 0
2 1 0
2.4 1 0
2.8 1 0
3.2 1 0
3.6 1 0
4 1 0
4.4 1 0
4.8 1 0
5.2 1 0
5.6 1 0
6 1 0
6.4 1 0
6.8 1 0
7.2 1 0
7.6 1 0
8 1 0
8.4 1 0
8.8 1 0
9.2 1 0
9.6 1 0
10 1 0
10.4 1 0
10.8 1 0
11.2 1 0
11.6 1 0
12 1 0
12.4 1 0
12.8 1 0
13.2 1 0
13.6 1 0
14 1 0
14.4 1 0
14.8 1 0
15.2 1 0
15.6 1 0
16 1 0
16.4 1 0
16.8 1 0
17.2 1 0
17.6 1 0
18 1 0
18.4 1 0
18.8 1 0
19.2 1 0
19.6 1 0
20 1 0
20.4 1 0
20.8 1 0
21.2 1 0
21.6 1 0
22 1 0
22.4 1 0
22.8 1 0
23.2 1 0
23.6 1 0
24 1 0
24.4 1 0
24.8 1 0
25.2 1 0
25.6 1 0
26 1 0
26.4 1 0
26.8 1 0
27.2 1 0
27.6 1 0
28 1 0
28.4 1 0
28.8 1 0
29.2 1 0
29.6 1 0
30 1 0
30.4 1 0
30.8 1 0
31.2 1 0
31.6 1 0
32 1 0
32.4 1 0
32.8 1 0
33.2 1 0
33.6 1 0
34 1 0
34.4 1 0
34.8 1 0
35.2 1 0
35.6 1 0
36 1 0
36.4 1 0
36.8 1 0
37.2 1 0
37.6 1 0
38 1 0
38.4 1 0
38.8 1 0
39.2 1 0
39.6 1 0
40 1 0
40.4 1 0
0 1.1 0
0.4 1.1 0
0.8 1.1 0
1.2 1.1 0
1.6 1.1 0
2 1.1 0
2.4 1.1 0
2.8 1.1 0
3.2 1.1 0
3.6 1.1 0
4 1.1 0
4.4 1.1 0
4.8 1.1 0
5.2 1.1 0
5.6 1.1 0
6 1.1 0
6.4 1.1 0
6.8 1.1 0
7.2 1.1 0
7.6 1.1 0
8 1.1 0
8.4 1.1 0
8.8 1.1 0
9.2 1.1 0
9.6 1.1 0
10 1.1 0
10.4 1.1 0
10.8 1.1 0
11.2 1.1 0
11.6 1.1 0
12 1.1 0
12.4 1.1 0
12.8 1.1 0
13.2 1.1 0
13.6 1.1 0
14 1.1 0
14.4 1.1 0
14.8 1.1 0
15.2 1.1 0
15.6 1.1 0
16 1.1 0
16.4 1.1 0
16.8 1.1 0
17.2 1.1 0
17.6 1.1 0
18 1.1 0
18.4 1.1 0
18.8 1.1 0
19.2 1.1 0
19.6 1.1 0
20 1.1 0
20.4 1.1 0
20.8 1.1 0
21.2 1.1 0
21.6 1.1 0
22 1.1 0
22.4 1.1 0
22.8 1.1 0
23.2 1.1 0
23.6 1.1 0
24 1.1 0
24.4 1.1 0
24.8 1.1 0
25.2 1.1 0
25.6 1.1 0
26 1.1 0
26.4 1.1 0
26.8 1.1 0
27.2 1.1 0
27.6 1.1 0
28 1.1 0
28.4 1.1 0
28.8 1.1 0
29.2 1.1 0
29.6 1.1 0
30 1.1 0
30.4 1.1 0
30.8 1.1 0
31.2 1.1 0
31.6 1.1 0
32 1.1 0
32.4 1.1 0
32.8 1.1 0
33.2 1.1 0
33.6 1.1 0
34 1.1 0
34.4 1.1 0
34.8 1.1 0
35.2 1.1 0
35.6 1.1 0
36 1.1 0
36.4 1.1 0
36.8 1.1 0
37.2 1.1 0
37.6 1.1 0
38 1.1 0
38.4 1.1 0
38.8 1.1 0
39.2 1.1 0
39.6 1.1 0
40 1.1 0
40.4 1.1 0

POINT_DATA 1224

SCALARS v double
LOOKUP_TABLE default
0
0
0
0
0
0
0
0
0
0
0
0
0
0
0
0
0
0
0
0
0
0
0
0
0
0
0
0
0
0
0
0
0
0
0
0
0
0
0
0
0
0
0
0
0
0
0
0
0
0
0
0
0
0
0
0
0
0
0
0
0
0
0
0
0
0
0
0
0
0
0
0
0
0
0
0
0
0
0
0
0
0
0
0
0
0
0
0
0
0
0
0
0
0
0
0
0
0
0
0
0
0
0
0.0787934
0.055547
0.0313885
0.0145152
0.00546946
0.00166538
0.000390499
5.63753e-05
-4.76383e-06
-5.9634e-06
-2.17845e-06
-5.45846e-07
-7.20193e-08
4.26435e-08
7.04028e-08
7.44112e-08
7.30495e-08
7.0608e-08
6.78807e-08
6.50069e-08
6.20113e-08
5.88985e-08
5.5674e-08
5.23433e-08
4.89115e-08
4.53814e-08
4.17576e-08
3.8044e-08
3.42417e-08
3.03549e-08
2.63932e-08
2.23602e-08
1.82536e-08
1.40731e-08
9.81656e-09
5.48334e-09
1.09056e-09
-3.27532e-09
-7.65368e-09
-1.20603e-08
-1.64953e-08
-2.09563e-08
-2.54461e-08
-2.99597e-08
-3.44907e-08
-3.90391e-08
-4.36085e-08
-4.81945e-08
-5.27991e-08
-5.74202e-08
-6.20453e-08
-6.66691e-08
-7.12853e-08
-7.58844e-08
-8.04718e-08
-8.50516e-08
-8.96185e-08
-9.41664e-08
-9.86945e-08
-1.03202e-07
-1.07685e-07
-1.1214e-07
-1.16564e-07
-1.20953e-07
-1.25302e-07
-1.29608e-07
-1.33862e-07
-1.38062e-07
-1.42204e-07
-1.46284e-07
-1.50296e-07
-1.54237e-07
-1.58101e-07
-1.61882e-07
-1.65576e-07
-1.69177e-07
-1.72681e-07
-1.76082e-07
-1.79375e-07
-1.82555e-07
-1.85617e-07
-1.88556e-07
-1.91367e-07
-1.94045e-07
-1.96586e-07
-1.98985e-07
-2.0124e-07
-2.0335e-07
-2.05321e-07
-2.07178e-07
-2.09043e-07
-2.11298e-07
-2.17571e-07
-2.29986e-07
-4.17644e-07
-4.51637e-07
-7.26807e-06
-4.43468e-06
-0.000156284
-0.00021496
-0.00021496
0
0.0670576
0.0610197
0.0395183
0.0202196
0.00828269
0.00267923
0.000633918
6.95729e-05
-2.67926e-05
-2.00472e-05
-7.99476e-06
-2.47482e-06
-6.34275e-07
-1.19845e-07
3.34102e-09
2.85773e-08
3.1982e-08
3.07167e-08
2.84716e-08
2.59717e-08
2.33469e-08
2.0618e-08
1.77951e-08
1.48852e-08
1.18916e-08
8.81734e-09
5.66389e-09
2.43178e-09
-8.64692e-10
-4.20734e-09
-7.60293e-09
-1.10498e-08
-1.45562e-08
-1.81315e-08
-2.17855e-08
-2.55269e-08
-2.93472e-08
-3.32276e-08
-3.71353e-08
-4.10536e-08
-4.49808e-08
-4.89188e-08
-5.28729e-08
-5.68374e-08
-6.08055e-08
-6.47876e-08
-6.87958e-08
-7.28255e-08
-7.6875e-08
-8.09337e-08
-8.49822e-08
-8.90152e-08
-9.30262e-08
-9.70087e-08
-1.00977e-07
-1.04942e-07
-1.08897e-07
-1.12838e-07
-1.16765e-07
-1.2068e-07
-1.24577e-07
-1.28454e-07
-1.32306e-07
-1.3613e-07
-1.39921e-07
-1.43672e-07
-1.47373e-07
-1.51024e-07
-1.54622e-07
-1.58165e-07
-1.61648e-07
-1.65067e-07
-1.68418e-07
-1.71695e-07
-1.74895e-07
-1.78011e-07
-1.8104e-07
-1.83977e-07
-1.86818e-07
-1.89558e-07
-1.92193e-07
-1.9472e-07
-1.97132e-07
-1.99428e-07
-2.01602e-07
-2.03652e-07
-2.05577e-07
-2.07379e-07
-2.09074e-07
-2.10714e-07
-2.12521e-07
-2.15026e-07
-2.25198e-07
-2.36149e-07
-5.92117e-07
-2.48975e-07
-1.3336e-05
3.01424e-06
-0.000330436
-0.000429731
-0.000429731
0
0.0437123
0.0452633
0.0313815
0.0167351
0.00703736
0.00229296
0.000518749
3.19497e-05
-4.06013e-05
-2.63914e-05
-1.07946e-05
-3.53768e-06
-9.81755e-07
-2.20229e-07
-2.23319e-08
2.22868e-08
3.02348e-08
3.00645e-08
2.81906e-08
2.59284e-08
2.35239e-08
2.10217e-08
1.84349e-08
1.57714e-08
1.30349e-08
1.02264e-08
7.34597e-09
4.39238e-09
1.36605e-09
-1.71678e-09
-4.84269e-09
-8.01251e-09
-1.12386e-08
-1.45374e-08
-1.7927e-08
-2.14284e-08
-2.50387e-08
-2.87246e-08
-3.24353e-08
-3.61425e-08
-3.98406e-08
-4.3533e-08
-4.72264e-08
-5.09156e-08
-5.45971e-08
-5.82913e-08
-6.20161e-08
-6.57663e-08
-6.95323e-08
-7.32963e-08
-7.70412e-08
-8.07659e-08
-8.44663e-08
-8.81383e-08
-9.17954e-08
-9.54471e-08
-9.90891e-08
-1.02717e-07
-1.06334e-07
-1.09942e-07
-1.13534e-07
-1.17107e-07
-1.20658e-07
-1.24185e-07
-1.27682e-07
-1.31139e-07
-1.34548e-07
-1.37907e-07
-1.41216e-07
-1.44472e-07
-1.47672e-07
-1.50813e-07
-1.5389e-07
-1.56899e-07
-1.59833e-07
-1.62689e-07
-1.65463e-07
-1.68149e-07
-1.70746e-07
-1.73248e-07
-1.75652e-07
-1.77953e-07
-1.80149e-07
-1.82235e-07
-1.84208e-07
-1.86066e-07
-1.87809e-07
-1.89441e-07
-1.90984e-07
-1.92499e-07
-1.94237e-07
-1.96691e-07
-2.07048e-07
-2.13567e-07
-5.65043e-07
-1.05943e-07
-1.2754e-05
4.42596e-06
-0.000320607
-0.000417661
-0.000417661
0
0.0212164
0.0232468
0.0166468
0.00905519
0.00385924
0.00126574
0.000282572
1.20975e-05
-2.66145e-05
-1.70122e-05
-7.06068e-06
-2.34339e-06
-6.36753e-07
-1.13874e-07
2.56444e-08
5.75765e-08
6.27017e-08
6.18454e-08
5.972e-08
5.72837e-08
5.47129e-08
5.20406e-08
4.9278e-08
4.64326e-08
4.35083e-08
4.05061e-08
3.7426e-08
3.42668e-08
3.10294e-08
2.77228e-08
2.43627e-08
2.09568e-08
1.74924e-08
1.3949e-08
1.0302e-08
6.51599e-09
2.58504e-09
-1.44404e-09
-5.50096e-09
-9.54694e-09
-1.35716e-08
-1.75783e-08
-2.15733e-08
-2.55545e-08
-2.95236e-08
-3.35079e-08
-3.75286e-08
-4.15772e-08
-4.56342e-08
-4.96811e-08
-5.37128e-08
-5.77367e-08
-6.17523e-08
-6.57527e-08
-6.97379e-08
-7.37077e-08
-7.76574e-08
-8.15849e-08
-8.54948e-08
-8.93864e-08
-9.32534e-08
-9.70929e-08
-1.00905e-07
-1.04689e-07
-1.0844e-07
-1.12146e-07
-1.158e-07
-1.19399e-07
-1.22943e-07
-1.26429e-07
-1.29855e-07
-1.33218e-07
-1.36513e-07
-1.39733e-07
-1.42874e-07
-1.45929e-07
-1.48894e-07
-1.51767e-07
-1.54541e-07
-1.57215e-07
-1.59782e-07
-1.62239e-07
-1.64583e-07
-1.66808e-07
-1.68913e-07
-1.70894e-07
-1.72751e-07
-1.74491e-07
-1.76134e-07
-1.77744e-07
-1.79536e-07
-1.81921e-07
-1.89445e-07
-1.94141e-07
-3.96847e-07
-1.33318e-07
-7.33331e-06
1.63332e-06
-0.000182655
-0.000240824
-0.000240824
0
2.04715e-07
2.242e-07
2.89711e-08
-1.11619e-07
-9.67682e-08
-1.31626e-08
6.09806e-08
9.09797e-08
9.02665e-08
9.26805e-08
1.01835e-07
1.10249e-07
1.15313e-07
1.16659e-07
1.15062e-07
1.12297e-07
1.09432e-07
1.06676e-07
1.03922e-07
1.01093e-07
9.81587e-08
9.5117e-08
9.19728e-08
8.87325e-08
8.54001e-08
8.19778e-08
7.84667e-08
7.4866e-08
7.11773e-08
6.74096e-08
6.35786e-08
5.96967e-08
5.57521e-08
5.17222e-08
4.75774e-08
4.32667e-08
3.87729e-08
3.41516e-08
2.94913e-08
2.48464e-08
2.02313e-08
1.56434e-08
1.10766e-08
6.52993e-09
1.99591e-09
-2.55816e-09
-7.1555e-09
-1.17827e-08
-1.64097e-08
-2.10204e-08
-2.56277e-08
-3.02491e-08
-3.48883e-08
-3.95323e-08
-4.41617e-08
-4.87613e-08
-5.33251e-08
-5.78539e-08
-6.23524e-08
-6.68177e-08
-7.12427e-08
-7.56268e-08
-7.99739e-08
-8.42851e-08
-8.8555e-08
-9.27736e-08
-9.6933e-08
-1.01031e-07
-1.05065e-07
-1.09033e-07
-1.12932e-07
-1.16759e-07
-1.20509e-07
-1.24174e-07
-1.27748e-07
-1.31224e-07
-1.34599e-07
-1.37867e-07
-1.41024e-07
-1.44066e-07
-1.46988e-07
-1.49785e-07
-1.52452e-07
-1.54985e-07
-1.57381e-07
-1.59637e-07
-1.61751e-07
-1.6373e-07
-1.65593e-07
-1.67398e-07
-1.69296e-07
-1.71559e-07
-1.75077e-07
-1.77662e-07
-1.76539e-07
-1.65775e-07
-1.47854e-07
-1.37671e-07
-1.38409e-07
-1.7539e-07
-1.7539e-07
0
-0.021216
-0.0232463
-0.0166468
-0.00905543
-0.00385944
-0.00126575
-0.000282437
-1.1903e-05
2.68023e-05
1.72015e-05
7.2665e-06
2.56491e-06
8.67786e-07
3.47234e-07
2.04183e-07
1.66731e-07
1.55929e-07
1.51291e-07
1.47903e-07
1.44665e-07
1.41352e-07
1.37924e-07
1.34382e-07
1.30731e-07
1.26976e-07
1.23119e-07
1.19163e-07
1.15108e-07
1.10956e-07
1.06716e-07
1.02403e-07
9.80346e-08
9.36009e-08
8.90787e-08
8.44369e-08
7.96084e-08
7.45637e-08
6.9368e-08
6.41275e-08
5.89067e-08
5.37215e-08
4.85689e-08
4.34433e-08
3.83413e-08
3.32515e-08
2.81371e-08
2.29735e-08
1.77789e-08
1.25934e-08
7.43057e-09
2.26033e-09
-2.94882e-09
-8.20324e-09
-1.34825e-08
-1.8749e-08
-2.39731e-08
-2.91472e-08
-3.42744e-08
-3.93599e-08
-4.43982e-08
-4.93812e-08
-5.43103e-08
-5.91925e-08
-6.40309e-08
-6.88204e-08
-7.35515e-08
-7.82168e-08
-8.28136e-08
-8.7339e-08
-9.17887e-08
-9.61605e-08
-1.00452e-07
-1.04657e-07
-1.08766e-07
-1.12773e-07
-1.16669e-07
-1.20452e-07
-1.24115e-07
-1.27654e-07
-1.31063e-07
-1.34337e-07
-1.37472e-07
-1.40461e-07
-1.43301e-07
-1.45986e-07
-1.48513e-07
-1.50881e-07
-1.53094e-07
-1.5517e-07
-1.57154e-07
-1.5913e-07
-1.61216e-07
-1.60789e-07
-1.61975e-07
4.2047e-08
-2.00727e-07
7.03524e-06
-1.91104e-06
0.000182376
0.000240473
0.000240473
0
-0.0437118
-0.0452629
-0.0313815
-0.0167354
-0.00703753
-0.00229295
-0.00051858
-3.17203e-05
4.08097e-05
2.65923e-05
1.1007e-05
3.76227e-06
1.21385e-06
4.53833e-07
2.51657e-07
2.0111e-07
1.87592e-07
1.82308e-07
1.78635e-07
1.75162e-07
1.71614e-07
1.67948e-07
1.64162e-07
1.60263e-07
1.56253e-07
1.52137e-07
1.47919e-07
1.436e-07
1.39182e-07
1.34674e-07
1.30088e-07
1.25449e-07
1.20748e-07
1.15967e-07
1.11082e-07
1.06016e-07
1.00729e-07
9.52861e-08
8.97985e-08
8.4331e-08
7.88967e-08
7.34915e-08
6.81112e-08
6.27519e-08
5.74026e-08
5.20277e-08
4.66024e-08
4.11471e-08
3.5707e-08
3.02951e-08
2.48727e-08
1.94071e-08
1.38883e-08
8.33508e-09
2.79201e-09
-2.71884e-09
-8.1861e-09
-1.36039e-08
-1.89769e-08
-2.42978e-08
-2.9557e-08
-3.47559e-08
-3.99025e-08
-4.50006e-08
-5.00454e-08
-5.50279e-08
-5.99416e-08
-6.47833e-08
-6.95493e-08
-7.42343e-08
-7.88357e-08
-8.33513e-08
-8.77747e-08
-9.20968e-08
-9.63093e-08
-1.00406e-07
-1.04381e-07
-1.08229e-07
-1.11946e-07
-1.15525e-07
-1.18962e-07
-1.2225e-07
-1.25385e-07
-1.2836e-07
-1.31172e-07
-1.33817e-07
-1.36292e-07
-1.386e-07
-1.40754e-07
-1.42789e-07
-1.44731e-07
-1.46597e-07
-1.43257e-07
-1.46199e-07
2.04096e-07
-2.36523e-07
1.2446e-05
-4.71434e-06
0.000320318
0.000417308
0.000417308
0
-0.0670571
-0.0610193
-0.0395183
-0.0202198
-0.00828276
-0.00267915
-0.000633705
-6.92985e-05
2.70382e-05
2.02684e-05
8.21899e-06
2.70471e-06
8.67235e-07
3.52912e-07
2.24397e-07
1.93552e-07
1.84852e-07
1.80686e-07
1.77296e-07
1.73941e-07
1.70487e-07
1.66919e-07
1.63241e-07
1.59457e-07
1.55572e-07
1.5159e-07
1.47516e-07
1.43352e-07
1.391e-07
1.34768e-07
1.30366e-07
1.25916e-07
1.21422e-07
1.16874e-07
1.12268e-07
1.07545e-07
1.02657e-07
9.76446e-08
9.25921e-08
8.75448e-08
8.25102e-08
7.74848e-08
7.24677e-08
6.74586e-08
6.24524e-08
5.74252e-08
5.23571e-08
4.72638e-08
4.21831e-08
3.71301e-08
3.20735e-08
2.69865e-08
2.18602e-08
1.67061e-08
1.156e-08
6.4491e-09
1.37487e-09
-3.703e-09
-8.75967e-09
-1.37748e-08
-1.87379e-08
-2.36475e-08
-2.85086e-08
-3.33229e-08
-3.8086e-08
-4.27905e-08
-4.74306e-08
-5.20028e-08
-5.65032e-08
-6.09259e-08
-6.52674e-08
-6.95253e-08
-7.36941e-08
-7.77659e-08
-8.17331e-08
-8.55897e-08
-8.93306e-08
-9.29507e-08
-9.64448e-08
-9.98075e-08
-1.03034e-07
-1.06118e-07
-1.09055e-07
-1.1184e-07
-1.14469e-07
-1.16937e-07
-1.19242e-07
-1.21385e-07
-1.23374e-07
-1.25229e-07
-1.26946e-07
-1.28542e-07
-1.24471e-07
-1.30309e-07
2.19595e-07
-1.1081e-07
1.30046e-05
-3.32832e-06
0.000330121
0.000429375
0.000429375
0
-0.0787929
-0.0555466
-0.0313883
-0.0145151
-0.00546935
-0.00166518
-0.000390251
-5.60896e-05
5.06165e-06
6.21283e-06
2.41849e-06
7.83166e-07
3.0329e-07
1.84379e-07
1.56489e-07
1.48768e-07
1.45095e-07
1.42123e-07
1.39191e-07
1.36174e-07
1.33053e-07
1.2983e-07
1.2651e-07
1.23098e-07
1.19596e-07
1.16009e-07
1.12344e-07
1.08601e-07
1.04786e-07
1.00902e-07
9.69565e-08
9.29631e-08
8.89365e-08
8.48761e-08
8.08048e-08
7.67063e-08
7.25428e-08
6.83127e-08
6.40424e-08
5.97473e-08
5.54309e-08
5.10952e-08
4.67442e-08
4.2382e-08
3.80107e-08
3.36265e-08
2.92195e-08
2.47968e-08
2.03749e-08
1.59679e-08
1.15665e-08
7.16149e-09
2.74702e-09
-1.73528e-09
-6.27137e-09
-1.0795e-08
-1.52999e-08
-1.97844e-08
-2.42493e-08
-2.86894e-08
-3.30973e-08
-3.74684e-08
-4.18017e-08
-4.60955e-08
-5.03456e-08
-5.45467e-08
-5.86942e-08
-6.27841e-08
-6.68125e-08
-7.07738e-08
-7.46636e-08
-7.84785e-08
-8.2214e-08
-8.58642e-08
-8.94234e-08
-9.28863e-08
-9.62481e-08
-9.95037e-08
-1.02648e-07
-1.05677e-07
-1.08585e-07
-1.11367e-07
-1.14019e-07
-1.16536e-07
-1.18914e-07
-1.21148e-07
-1.23237e-07
-1.25178e-07
-1.26973e-07
-1.28629e-07
-1.30133e-07
-1.31534e-07
-1.29774e-07
-1.33723e-07
3.1942e-08
7.66578e-08
6.9106e-06
4.08895e-06
0.000155938
0.000214603
0.000214603
0
0
0
0
0
0
0
0
0
0
0
0
0
0
0
0
0
0
0
0
0
0
0
0
0
0
0
0
0
0
0
0
0
0
0
0
0
0
0
0
0
0
0
0
0
0
0
0
0
0
0
0
0
0
0
0
0
0
0
0
0
0
0
0
0
0
0
0
0
0
0
0
0
0
0
0
0
0
0
0
0
0
0
0
0
0
0
0
0
0
0
0
0
0
0
0
0
0
0
0
0
0
0
0
0
0
0
0
0
0
0
0
0
0
0
0
0
0
0
0
0
0
0
0
0
0
0
0
0
0
0
0
0
0
0
0
0
0
0
0
0
0
0
0
0
0
0
0
0
0
0
0
0
0
0
0
0
0
0
0
0
0
0
0
0
0
0
0
0
0
0
0
0
0
0
0
0
0
0
0
0
0
0
0
0
0
0
0
0
0
0
0
0
0
0
0
0
0
0
0
0
0
0
0
