# vtk DataFile Version 2.0
FlowField
ASCII
DATASET STRUCTURED_GRID
DIMENSIONS 102 13 1 
POINTS 1326 double
0 0 0
0.3 0 0
0.6 0 0
0.9 0 0
1.2 0 0
1.5 0 0
1.8 0 0
2.1 0 0
2.4 0 0
2.7 0 0
3 0 0
3.3 0 0
3.6 0 0
3.9 0 0
4.2 0 0
4.5 0 0
4.8 0 0
5.1 0 0
5.4 0 0
5.7 0 0
6 0 0
6.3 0 0
6.6 0 0
6.9 0 0
7.2 0 0
7.5 0 0
7.8 0 0
8.1 0 0
8.4 0 0
8.7 0 0
9 0 0
9.3 0 0
9.6 0 0
9.9 0 0
10.2 0 0
10.5 0 0
10.8 0 0
11.1 0 0
11.4 0 0
11.7 0 0
12 0 0
12.3 0 0
12.6 0 0
12.9 0 0
13.2 0 0
13.5 0 0
13.8 0 0
14.1 0 0
14.4 0 0
14.7 0 0
15 0 0
15.3 0 0
15.6 0 0
15.9 0 0
16.2 0 0
16.5 0 0
16.8 0 0
17.1 0 0
17.4 0 0
17.7 0 0
18 0 0
18.3 0 0
18.6 0 0
18.9 0 0
19.2 0 0
19.5 0 0
19.8 0 0
20.1 0 0
20.4 0 0
20.7 0 0
21 0 0
21.3 0 0
21.6 0 0
21.9 0 0
22.2 0 0
22.5 0 0
22.8 0 0
23.1 0 0
23.4 0 0
23.7 0 0
24 0 0
24.3 0 0
24.6 0 0
24.9 0 0
25.2 0 0
25.5 0 0
25.8 0 0
26.1 0 0
26.4 0 0
26.7 0 0
27 0 0
27.3 0 0
27.6 0 0
27.9 0 0
28.2 0 0
28.5 0 0
28.8 0 0
29.1 0 0
29.4 0 0
29.7 0 0
30 0 0
30.3 0 0
0 0.1 0
0.3 0.1 0
0.6 0.1 0
0.9 0.1 0
1.2 0.1 0
1.5 0.1 0
1.8 0.1 0
2.1 0.1 0
2.4 0.1 0
2.7 0.1 0
3 0.1 0
3.3 0.1 0
3.6 0.1 0
3.9 0.1 0
4.2 0.1 0
4.5 0.1 0
4.8 0.1 0
5.1 0.1 0
5.4 0.1 0
5.7 0.1 0
6 0.1 0
6.3 0.1 0
6.6 0.1 0
6.9 0.1 0
7.2 0.1 0
7.5 0.1 0
7.8 0.1 0
8.1 0.1 0
8.4 0.1 0
8.7 0.1 0
9 0.1 0
9.3 0.1 0
9.6 0.1 0
9.9 0.1 0
10.2 0.1 0
10.5 0.1 0
10.8 0.1 0
11.1 0.1 0
11.4 0.1 0
11.7 0.1 0
12 0.1 0
12.3 0.1 0
12.6 0.1 0
12.9 0.1 0
13.2 0.1 0
13.5 0.1 0
13.8 0.1 0
14.1 0.1 0
14.4 0.1 0
14.7 0.1 0
15 0.1 0
15.3 0.1 0
15.6 0.1 0
15.9 0.1 0
16.2 0.1 0
16.5 0.1 0
16.8 0.1 0
17.1 0.1 0
17.4 0.1 0
17.7 0.1 0
18 0.1 0
18.3 0.1 0
18.6 0.1 0
18.9 0.1 0
19.2 0.1 0
19.5 0.1 0
19.8 0.1 0
20.1 0.1 0
20.4 0.1 0
20.7 0.1 0
21 0.1 0
21.3 0.1 0
21.6 0.1 0
21.9 0.1 0
22.2 0.1 0
22.5 0.1 0
22.8 0.1 0
23.1 0.1 0
23.4 0.1 0
23.7 0.1 0
24 0.1 0
24.3 0.1 0
24.6 0.1 0
24.9 0.1 0
25.2 0.1 0
25.5 0.1 0
25.8 0.1 0
26.1 0.1 0
26.4 0.1 0
26.7 0.1 0
27 0.1 0
27.3 0.1 0
27.6 0.1 0
27.9 0.1 0
28.2 0.1 0
28.5 0.1 0
28.8 0.1 0
29.1 0.1 0
29.4 0.1 0
29.7 0.1 0
30 0.1 0
30.3 0.1 0
0 0.2 0
0.3 0.2 0
0.6 0.2 0
0.9 0.2 0
1.2 0.2 0
1.5 0.2 0
1.8 0.2 0
2.1 0.2 0
2.4 0.2 0
2.7 0.2 0
3 0.2 0
3.3 0.2 0
3.6 0.2 0
3.9 0.2 0
4.2 0.2 0
4.5 0.2 0
4.8 0.2 0
5.1 0.2 0
5.4 0.2 0
5.7 0.2 0
6 0.2 0
6.3 0.2 0
6.6 0.2 0
6.9 0.2 0
7.2 0.2 0
7.5 0.2 0
7.8 0.2 0
8.1 0.2 0
8.4 0.2 0
8.7 0.2 0
9 0.2 0
9.3 0.2 0
9.6 0.2 0
9.9 0.2 0
10.2 0.2 0
10.5 0.2 0
10.8 0.2 0
11.1 0.2 0
11.4 0.2 0
11.7 0.2 0
12 0.2 0
12.3 0.2 0
12.6 0.2 0
12.9 0.2 0
13.2 0.2 0
13.5 0.2 0
13.8 0.2 0
14.1 0.2 0
14.4 0.2 0
14.7 0.2 0
15 0.2 0
15.3 0.2 0
15.6 0.2 0
15.9 0.2 0
16.2 0.2 0
16.5 0.2 0
16.8 0.2 0
17.1 0.2 0
17.4 0.2 0
17.7 0.2 0
18 0.2 0
18.3 0.2 0
18.6 0.2 0
18.9 0.2 0
19.2 0.2 0
19.5 0.2 0
19.8 0.2 0
20.1 0.2 0
20.4 0.2 0
20.7 0.2 0
21 0.2 0
21.3 0.2 0
21.6 0.2 0
21.9 0.2 0
22.2 0.2 0
22.5 0.2 0
22.8 0.2 0
23.1 0.2 0
23.4 0.2 0
23.7 0.2 0
24 0.2 0
24.3 0.2 0
24.6 0.2 0
24.9 0.2 0
25.2 0.2 0
25.5 0.2 0
25.8 0.2 0
26.1 0.2 0
26.4 0.2 0
26.7 0.2 0
27 0.2 0
27.3 0.2 0
27.6 0.2 0
27.9 0.2 0
28.2 0.2 0
28.5 0.2 0
28.8 0.2 0
29.1 0.2 0
29.4 0.2 0
29.7 0.2 0
30 0.2 0
30.3 0.2 0
0 0.3 0
0.3 0.3 0
0.6 0.3 0
0.9 0.3 0
1.2 0.3 0
1.5 0.3 0
1.8 0.3 0
2.1 0.3 0
2.4 0.3 0
2.7 0.3 0
3 0.3 0
3.3 0.3 0
3.6 0.3 0
3.9 0.3 0
4.2 0.3 0
4.5 0.3 0
4.8 0.3 0
5.1 0.3 0
5.4 0.3 0
5.7 0.3 0
6 0.3 0
6.3 0.3 0
6.6 0.3 0
6.9 0.3 0
7.2 0.3 0
7.5 0.3 0
7.8 0.3 0
8.1 0.3 0
8.4 0.3 0
8.7 0.3 0
9 0.3 0
9.3 0.3 0
9.6 0.3 0
9.9 0.3 0
10.2 0.3 0
10.5 0.3 0
10.8 0.3 0
11.1 0.3 0
11.4 0.3 0
11.7 0.3 0
12 0.3 0
12.3 0.3 0
12.6 0.3 0
12.9 0.3 0
13.2 0.3 0
13.5 0.3 0
13.8 0.3 0
14.1 0.3 0
14.4 0.3 0
14.7 0.3 0
15 0.3 0
15.3 0.3 0
15.6 0.3 0
15.9 0.3 0
16.2 0.3 0
16.5 0.3 0
16.8 0.3 0
17.1 0.3 0
17.4 0.3 0
17.7 0.3 0
18 0.3 0
18.3 0.3 0
18.6 0.3 0
18.9 0.3 0
19.2 0.3 0
19.5 0.3 0
19.8 0.3 0
20.1 0.3 0
20.4 0.3 0
20.7 0.3 0
21 0.3 0
21.3 0.3 0
21.6 0.3 0
21.9 0.3 0
22.2 0.3 0
22.5 0.3 0
22.8 0.3 0
23.1 0.3 0
23.4 0.3 0
23.7 0.3 0
24 0.3 0
24.3 0.3 0
24.6 0.3 0
24.9 0.3 0
25.2 0.3 0
25.5 0.3 0
25.8 0.3 0
26.1 0.3 0
26.4 0.3 0
26.7 0.3 0
27 0.3 0
27.3 0.3 0
27.6 0.3 0
27.9 0.3 0
28.2 0.3 0
28.5 0.3 0
28.8 0.3 0
29.1 0.3 0
29.4 0.3 0
29.7 0.3 0
30 0.3 0
30.3 0.3 0
0 0.4 0
0.3 0.4 0
0.6 0.4 0
0.9 0.4 0
1.2 0.4 0
1.5 0.4 0
1.8 0.4 0
2.1 0.4 0
2.4 0.4 0
2.7 0.4 0
3 0.4 0
3.3 0.4 0
3.6 0.4 0
3.9 0.4 0
4.2 0.4 0
4.5 0.4 0
4.8 0.4 0
5.1 0.4 0
5.4 0.4 0
5.7 0.4 0
6 0.4 0
6.3 0.4 0
6.6 0.4 0
6.9 0.4 0
7.2 0.4 0
7.5 0.4 0
7.8 0.4 0
8.1 0.4 0
8.4 0.4 0
8.7 0.4 0
9 0.4 0
9.3 0.4 0
9.6 0.4 0
9.9 0.4 0
10.2 0.4 0
10.5 0.4 0
10.8 0.4 0
11.1 0.4 0
11.4 0.4 0
11.7 0.4 0
12 0.4 0
12.3 0.4 0
12.6 0.4 0
12.9 0.4 0
13.2 0.4 0
13.5 0.4 0
13.8 0.4 0
14.1 0.4 0
14.4 0.4 0
14.7 0.4 0
15 0.4 0
15.3 0.4 0
15.6 0.4 0
15.9 0.4 0
16.2 0.4 0
16.5 0.4 0
16.8 0.4 0
17.1 0.4 0
17.4 0.4 0
17.7 0.4 0
18 0.4 0
18.3 0.4 0
18.6 0.4 0
18.9 0.4 0
19.2 0.4 0
19.5 0.4 0
19.8 0.4 0
20.1 0.4 0
20.4 0.4 0
20.7 0.4 0
21 0.4 0
21.3 0.4 0
21.6 0.4 0
21.9 0.4 0
22.2 0.4 0
22.5 0.4 0
22.8 0.4 0
23.1 0.4 0
23.4 0.4 0
23.7 0.4 0
24 0.4 0
24.3 0.4 0
24.6 0.4 0
24.9 0.4 0
25.2 0.4 0
25.5 0.4 0
25.8 0.4 0
26.1 0.4 0
26.4 0.4 0
26.7 0.4 0
27 0.4 0
27.3 0.4 0
27.6 0.4 0
27.9 0.4 0
28.2 0.4 0
28.5 0.4 0
28.8 0.4 0
29.1 0.4 0
29.4 0.4 0
29.7 0.4 0
30 0.4 0
30.3 0.4 0
0 0.5 0
0.3 0.5 0
0.6 0.5 0
0.9 0.5 0
1.2 0.5 0
1.5 0.5 0
1.8 0.5 0
2.1 0.5 0
2.4 0.5 0
2.7 0.5 0
3 0.5 0
3.3 0.5 0
3.6 0.5 0
3.9 0.5 0
4.2 0.5 0
4.5 0.5 0
4.8 0.5 0
5.1 0.5 0
5.4 0.5 0
5.7 0.5 0
6 0.5 0
6.3 0.5 0
6.6 0.5 0
6.9 0.5 0
7.2 0.5 0
7.5 0.5 0
7.8 0.5 0
8.1 0.5 0
8.4 0.5 0
8.7 0.5 0
9 0.5 0
9.3 0.5 0
9.6 0.5 0
9.9 0.5 0
10.2 0.5 0
10.5 0.5 0
10.8 0.5 0
11.1 0.5 0
11.4 0.5 0
11.7 0.5 0
12 0.5 0
12.3 0.5 0
12.6 0.5 0
12.9 0.5 0
13.2 0.5 0
13.5 0.5 0
13.8 0.5 0
14.1 0.5 0
14.4 0.5 0
14.7 0.5 0
15 0.5 0
15.3 0.5 0
15.6 0.5 0
15.9 0.5 0
16.2 0.5 0
16.5 0.5 0
16.8 0.5 0
17.1 0.5 0
17.4 0.5 0
17.7 0.5 0
18 0.5 0
18.3 0.5 0
18.6 0.5 0
18.9 0.5 0
19.2 0.5 0
19.5 0.5 0
19.8 0.5 0
20.1 0.5 0
20.4 0.5 0
20.7 0.5 0
21 0.5 0
21.3 0.5 0
21.6 0.5 0
21.9 0.5 0
22.2 0.5 0
22.5 0.5 0
22.8 0.5 0
23.1 0.5 0
23.4 0.5 0
23.7 0.5 0
24 0.5 0
24.3 0.5 0
24.6 0.5 0
24.9 0.5 0
25.2 0.5 0
25.5 0.5 0
25.8 0.5 0
26.1 0.5 0
26.4 0.5 0
26.7 0.5 0
27 0.5 0
27.3 0.5 0
27.6 0.5 0
27.9 0.5 0
28.2 0.5 0
28.5 0.5 0
28.8 0.5 0
29.1 0.5 0
29.4 0.5 0
29.7 0.5 0
30 0.5 0
30.3 0.5 0
0 0.6 0
0.3 0.6 0
0.6 0.6 0
0.9 0.6 0
1.2 0.6 0
1.5 0.6 0
1.8 0.6 0
2.1 0.6 0
2.4 0.6 0
2.7 0.6 0
3 0.6 0
3.3 0.6 0
3.6 0.6 0
3.9 0.6 0
4.2 0.6 0
4.5 0.6 0
4.8 0.6 0
5.1 0.6 0
5.4 0.6 0
5.7 0.6 0
6 0.6 0
6.3 0.6 0
6.6 0.6 0
6.9 0.6 0
7.2 0.6 0
7.5 0.6 0
7.8 0.6 0
8.1 0.6 0
8.4 0.6 0
8.7 0.6 0
9 0.6 0
9.3 0.6 0
9.6 0.6 0
9.9 0.6 0
10.2 0.6 0
10.5 0.6 0
10.8 0.6 0
11.1 0.6 0
11.4 0.6 0
11.7 0.6 0
12 0.6 0
12.3 0.6 0
12.6 0.6 0
12.9 0.6 0
13.2 0.6 0
13.5 0.6 0
13.8 0.6 0
14.1 0.6 0
14.4 0.6 0
14.7 0.6 0
15 0.6 0
15.3 0.6 0
15.6 0.6 0
15.9 0.6 0
16.2 0.6 0
16.5 0.6 0
16.8 0.6 0
17.1 0.6 0
17.4 0.6 0
17.7 0.6 0
18 0.6 0
18.3 0.6 0
18.6 0.6 0
18.9 0.6 0
19.2 0.6 0
19.5 0.6 0
19.8 0.6 0
20.1 0.6 0
20.4 0.6 0
20.7 0.6 0
21 0.6 0
21.3 0.6 0
21.6 0.6 0
21.9 0.6 0
22.2 0.6 0
22.5 0.6 0
22.8 0.6 0
23.1 0.6 0
23.4 0.6 0
23.7 0.6 0
24 0.6 0
24.3 0.6 0
24.6 0.6 0
24.9 0.6 0
25.2 0.6 0
25.5 0.6 0
25.8 0.6 0
26.1 0.6 0
26.4 0.6 0
26.7 0.6 0
27 0.6 0
27.3 0.6 0
27.6 0.6 0
27.9 0.6 0
28.2 0.6 0
28.5 0.6 0
28.8 0.6 0
29.1 0.6 0
29.4 0.6 0
29.7 0.6 0
30 0.6 0
30.3 0.6 0
0 0.7 0
0.3 0.7 0
0.6 0.7 0
0.9 0.7 0
1.2 0.7 0
1.5 0.7 0
1.8 0.7 0
2.1 0.7 0
2.4 0.7 0
2.7 0.7 0
3 0.7 0
3.3 0.7 0
3.6 0.7 0
3.9 0.7 0
4.2 0.7 0
4.5 0.7 0
4.8 0.7 0
5.1 0.7 0
5.4 0.7 0
5.7 0.7 0
6 0.7 0
6.3 0.7 0
6.6 0.7 0
6.9 0.7 0
7.2 0.7 0
7.5 0.7 0
7.8 0.7 0
8.1 0.7 0
8.4 0.7 0
8.7 0.7 0
9 0.7 0
9.3 0.7 0
9.6 0.7 0
9.9 0.7 0
10.2 0.7 0
10.5 0.7 0
10.8 0.7 0
11.1 0.7 0
11.4 0.7 0
11.7 0.7 0
12 0.7 0
12.3 0.7 0
12.6 0.7 0
12.9 0.7 0
13.2 0.7 0
13.5 0.7 0
13.8 0.7 0
14.1 0.7 0
14.4 0.7 0
14.7 0.7 0
15 0.7 0
15.3 0.7 0
15.6 0.7 0
15.9 0.7 0
16.2 0.7 0
16.5 0.7 0
16.8 0.7 0
17.1 0.7 0
17.4 0.7 0
17.7 0.7 0
18 0.7 0
18.3 0.7 0
18.6 0.7 0
18.9 0.7 0
19.2 0.7 0
19.5 0.7 0
19.8 0.7 0
20.1 0.7 0
20.4 0.7 0
20.7 0.7 0
21 0.7 0
21.3 0.7 0
21.6 0.7 0
21.9 0.7 0
22.2 0.7 0
22.5 0.7 0
22.8 0.7 0
23.1 0.7 0
23.4 0.7 0
23.7 0.7 0
24 0.7 0
24.3 0.7 0
24.6 0.7 0
24.9 0.7 0
25.2 0.7 0
25.5 0.7 0
25.8 0.7 0
26.1 0.7 0
26.4 0.7 0
26.7 0.7 0
27 0.7 0
27.3 0.7 0
27.6 0.7 0
27.9 0.7 0
28.2 0.7 0
28.5 0.7 0
28.8 0.7 0
29.1 0.7 0
29.4 0.7 0
29.7 0.7 0
30 0.7 0
30.3 0.7 0
0 0.8 0
0.3 0.8 0
0.6 0.8 0
0.9 0.8 0
1.2 0.8 0
1.5 0.8 0
1.8 0.8 0
2.1 0.8 0
2.4 0.8 0
2.7 0.8 0
3 0.8 0
3.3 0.8 0
3.6 0.8 0
3.9 0.8 0
4.2 0.8 0
4.5 0.8 0
4.8 0.8 0
5.1 0.8 0
5.4 0.8 0
5.7 0.8 0
6 0.8 0
6.3 0.8 0
6.6 0.8 0
6.9 0.8 0
7.2 0.8 0
7.5 0.8 0
7.8 0.8 0
8.1 0.8 0
8.4 0.8 0
8.7 0.8 0
9 0.8 0
9.3 0.8 0
9.6 0.8 0
9.9 0.8 0
10.2 0.8 0
10.5 0.8 0
10.8 0.8 0
11.1 0.8 0
11.4 0.8 0
11.7 0.8 0
12 0.8 0
12.3 0.8 0
12.6 0.8 0
12.9 0.8 0
13.2 0.8 0
13.5 0.8 0
13.8 0.8 0
14.1 0.8 0
14.4 0.8 0
14.7 0.8 0
15 0.8 0
15.3 0.8 0
15.6 0.8 0
15.9 0.8 0
16.2 0.8 0
16.5 0.8 0
16.8 0.8 0
17.1 0.8 0
17.4 0.8 0
17.7 0.8 0
18 0.8 0
18.3 0.8 0
18.6 0.8 0
18.9 0.8 0
19.2 0.8 0
19.5 0.8 0
19.8 0.8 0
20.1 0.8 0
20.4 0.8 0
20.7 0.8 0
21 0.8 0
21.3 0.8 0
21.6 0.8 0
21.9 0.8 0
22.2 0.8 0
22.5 0.8 0
22.8 0.8 0
23.1 0.8 0
23.4 0.8 0
23.7 0.8 0
24 0.8 0
24.3 0.8 0
24.6 0.8 0
24.9 0.8 0
25.2 0.8 0
25.5 0.8 0
25.8 0.8 0
26.1 0.8 0
26.4 0.8 0
26.7 0.8 0
27 0.8 0
27.3 0.8 0
27.6 0.8 0
27.9 0.8 0
28.2 0.8 0
28.5 0.8 0
28.8 0.8 0
29.1 0.8 0
29.4 0.8 0
29.7 0.8 0
30 0.8 0
30.3 0.8 0
0 0.9 0
0.3 0.9 0
0.6 0.9 0
0.9 0.9 0
1.2 0.9 0
1.5 0.9 0
1.8 0.9 0
2.1 0.9 0
2.4 0.9 0
2.7 0.9 0
3 0.9 0
3.3 0.9 0
3.6 0.9 0
3.9 0.9 0
4.2 0.9 0
4.5 0.9 0
4.8 0.9 0
5.1 0.9 0
5.4 0.9 0
5.7 0.9 0
6 0.9 0
6.3 0.9 0
6.6 0.9 0
6.9 0.9 0
7.2 0.9 0
7.5 0.9 0
7.8 0.9 0
8.1 0.9 0
8.4 0.9 0
8.7 0.9 0
9 0.9 0
9.3 0.9 0
9.6 0.9 0
9.9 0.9 0
10.2 0.9 0
10.5 0.9 0
10.8 0.9 0
11.1 0.9 0
11.4 0.9 0
11.7 0.9 0
12 0.9 0
12.3 0.9 0
12.6 0.9 0
12.9 0.9 0
13.2 0.9 0
13.5 0.9 0
13.8 0.9 0
14.1 0.9 0
14.4 0.9 0
14.7 0.9 0
15 0.9 0
15.3 0.9 0
15.6 0.9 0
15.9 0.9 0
16.2 0.9 0
16.5 0.9 0
16.8 0.9 0
17.1 0.9 0
17.4 0.9 0
17.7 0.9 0
18 0.9 0
18.3 0.9 0
18.6 0.9 0
18.9 0.9 0
19.2 0.9 0
19.5 0.9 0
19.8 0.9 0
20.1 0.9 0
20.4 0.9 0
20.7 0.9 0
21 0.9 0
21.3 0.9 0
21.6 0.9 0
21.9 0.9 0
22.2 0.9 0
22.5 0.9 0
22.8 0.9 0
23.1 0.9 0
23.4 0.9 0
23.7 0.9 0
24 0.9 0
24.3 0.9 0
24.6 0.9 0
24.9 0.9 0
25.2 0.9 0
25.5 0.9 0
25.8 0.9 0
26.1 0.9 0
26.4 0.9 0
26.7 0.9 0
27 0.9 0
27.3 0.9 0
27.6 0.9 0
27.9 0.9 0
28.2 0.9 0
28.5 0.9 0
28.8 0.9 0
29.1 0.9 0
29.4 0.9 0
29.7 0.9 0
30 0.9 0
30.3 0.9 0
0 1 0
0.3 1 0
0.6 1 0
0.9 1 0
1.2 1 0
1.5 1 0
1.8 1 0
2.1 1 0
2.4 1 0
2.7 1 0
3 1 0
3.3 1 0
3.6 1 0
3.9 1 0
4.2 1 0
4.5 1 0
4.8 1 0
5.1 1 0
5.4 1 0
5.7 1 0
6 1 0
6.3 1 0
6.6 1 0
6.9 1 0
7.2 1 0
7.5 1 0
7.8 1 0
8.1 1 0
8.4 1 0
8.7 1 0
9 1 0
9.3 1 0
9.6 1 0
9.9 1 0
10.2 1 0
10.5 1 0
10.8 1 0
11.1 1 0
11.4 1 0
11.7 1 0
12 1 0
12.3 1 0
12.6 1 0
12.9 1 0
13.2 1 0
13.5 1 0
13.8 1 0
14.1 1 0
14.4 1 0
14.7 1 0
15 1 0
15.3 1 0
15.6 1 0
15.9 1 0
16.2 1 0
16.5 1 0
16.8 1 0
17.1 1 0
17.4 1 0
17.7 1 0
18 1 0
18.3 1 0
18.6 1 0
18.9 1 0
19.2 1 0
19.5 1 0
19.8 1 0
20.1 1 0
20.4 1 0
20.7 1 0
21 1 0
21.3 1 0
21.6 1 0
21.9 1 0
22.2 1 0
22.5 1 0
22.8 1 0
23.1 1 0
23.4 1 0
23.7 1 0
24 1 0
24.3 1 0
24.6 1 0
24.9 1 0
25.2 1 0
25.5 1 0
25.8 1 0
26.1 1 0
26.4 1 0
26.7 1 0
27 1 0
27.3 1 0
27.6 1 0
27.9 1 0
28.2 1 0
28.5 1 0
28.8 1 0
29.1 1 0
29.4 1 0
29.7 1 0
30 1 0
30.3 1 0
0 1.1 0
0.3 1.1 0
0.6 1.1 0
0.9 1.1 0
1.2 1.1 0
1.5 1.1 0
1.8 1.1 0
2.1 1.1 0
2.4 1.1 0
2.7 1.1 0
3 1.1 0
3.3 1.1 0
3.6 1.1 0
3.9 1.1 0
4.2 1.1 0
4.5 1.1 0
4.8 1.1 0
5.1 1.1 0
5.4 1.1 0
5.7 1.1 0
6 1.1 0
6.3 1.1 0
6.6 1.1 0
6.9 1.1 0
7.2 1.1 0
7.5 1.1 0
7.8 1.1 0
8.1 1.1 0
8.4 1.1 0
8.7 1.1 0
9 1.1 0
9.3 1.1 0
9.6 1.1 0
9.9 1.1 0
10.2 1.1 0
10.5 1.1 0
10.8 1.1 0
11.1 1.1 0
11.4 1.1 0
11.7 1.1 0
12 1.1 0
12.3 1.1 0
12.6 1.1 0
12.9 1.1 0
13.2 1.1 0
13.5 1.1 0
13.8 1.1 0
14.1 1.1 0
14.4 1.1 0
14.7 1.1 0
15 1.1 0
15.3 1.1 0
15.6 1.1 0
15.9 1.1 0
16.2 1.1 0
16.5 1.1 0
16.8 1.1 0
17.1 1.1 0
17.4 1.1 0
17.7 1.1 0
18 1.1 0
18.3 1.1 0
18.6 1.1 0
18.9 1.1 0
19.2 1.1 0
19.5 1.1 0
19.8 1.1 0
20.1 1.1 0
20.4 1.1 0
20.7 1.1 0
21 1.1 0
21.3 1.1 0
21.6 1.1 0
21.9 1.1 0
22.2 1.1 0
22.5 1.1 0
22.8 1.1 0
23.1 1.1 0
23.4 1.1 0
23.7 1.1 0
24 1.1 0
24.3 1.1 0
24.6 1.1 0
24.9 1.1 0
25.2 1.1 0
25.5 1.1 0
25.8 1.1 0
26.1 1.1 0
26.4 1.1 0
26.7 1.1 0
27 1.1 0
27.3 1.1 0
27.6 1.1 0
27.9 1.1 0
28.2 1.1 0
28.5 1.1 0
28.8 1.1 0
29.1 1.1 0
29.4 1.1 0
29.7 1.1 0
30 1.1 0
30.3 1.1 0
0 1.2 0
0.3 1.2 0
0.6 1.2 0
0.9 1.2 0
1.2 1.2 0
1.5 1.2 0
1.8 1.2 0
2.1 1.2 0
2.4 1.2 0
2.7 1.2 0
3 1.2 0
3.3 1.2 0
3.6 1.2 0
3.9 1.2 0
4.2 1.2 0
4.5 1.2 0
4.8 1.2 0
5.1 1.2 0
5.4 1.2 0
5.7 1.2 0
6 1.2 0
6.3 1.2 0
6.6 1.2 0
6.9 1.2 0
7.2 1.2 0
7.5 1.2 0
7.8 1.2 0
8.1 1.2 0
8.4 1.2 0
8.7 1.2 0
9 1.2 0
9.3 1.2 0
9.6 1.2 0
9.9 1.2 0
10.2 1.2 0
10.5 1.2 0
10.8 1.2 0
11.1 1.2 0
11.4 1.2 0
11.7 1.2 0
12 1.2 0
12.3 1.2 0
12.6 1.2 0
12.9 1.2 0
13.2 1.2 0
13.5 1.2 0
13.8 1.2 0
14.1 1.2 0
14.4 1.2 0
14.7 1.2 0
15 1.2 0
15.3 1.2 0
15.6 1.2 0
15.9 1.2 0
16.2 1.2 0
16.5 1.2 0
16.8 1.2 0
17.1 1.2 0
17.4 1.2 0
17.7 1.2 0
18 1.2 0
18.3 1.2 0
18.6 1.2 0
18.9 1.2 0
19.2 1.2 0
19.5 1.2 0
19.8 1.2 0
20.1 1.2 0
20.4 1.2 0
20.7 1.2 0
21 1.2 0
21.3 1.2 0
21.6 1.2 0
21.9 1.2 0
22.2 1.2 0
22.5 1.2 0
22.8 1.2 0
23.1 1.2 0
23.4 1.2 0
23.7 1.2 0
24 1.2 0
24.3 1.2 0
24.6 1.2 0
24.9 1.2 0
25.2 1.2 0
25.5 1.2 0
25.8 1.2 0
26.1 1.2 0
26.4 1.2 0
26.7 1.2 0
27 1.2 0
27.3 1.2 0
27.6 1.2 0
27.9 1.2 0
28.2 1.2 0
28.5 1.2 0
28.8 1.2 0
29.1 1.2 0
29.4 1.2 0
29.7 1.2 0
30 1.2 0
30.3 1.2 0

POINT_DATA 1326

SCALARS v double
LOOKUP_TABLE default
0
0
0
0
0
0
0
0
0
0
0
0
0
0
0
0
0
0
0
0
0
0
0
0
0
0
0
0
0
0
0
0
0
0
0
0
0
0
0
0
0
0
0
0
0
0
0
0
0
0
0
0
0
0
0
0
0
0
0
0
0
0
0
0
0
0
0
0
0
0
0
0
0
0
0
0
0
0
0
0
0
0
0
0
0
0
0
0
0
0
0
0
0
0
0
0
0
0
0
0
0
0
-0.0370799
0.0370799
0.0391132
0.0336313
0.0272525
0.0213214
0.0162805
0.0122495
0.00917278
0.006904
0.00526867
0.00410327
0.00327336
0.00267716
0.00224164
0.00191619
0.00166662
0.00147002
0.00131108
0.00117958
0.00106864
0.000973496
0.000890794
0.000818136
0.000753775
0.00069636
0.00064482
0.000598335
0.000556244
0.000517975
0.000483058
0.000451112
0.000421803
0.000394839
0.000369974
0.000346998
0.000325726
0.000305989
0.00028765
0.000270583
0.000254675
0.000239828
0.000225956
0.000212978
0.000200825
0.000189435
0.000178749
0.000168716
0.00015929
0.000150428
0.000142092
0.000134245
0.000126855
0.000119893
0.000113331
0.000107143
0.000101307
9.57995e-05
9.06015e-05
8.56942e-05
8.10601e-05
7.66831e-05
7.25478e-05
6.86403e-05
6.49475e-05
6.14569e-05
5.8157e-05
5.5037e-05
5.20867e-05
4.92965e-05
4.66576e-05
4.41614e-05
4.18001e-05
3.95662e-05
3.74526e-05
3.54528e-05
3.35606e-05
3.177e-05
3.00754e-05
2.84718e-05
2.6954e-05
2.55176e-05
2.4158e-05
2.28711e-05
2.16529e-05
2.04999e-05
1.94084e-05
1.83752e-05
1.7397e-05
1.64712e-05
1.55946e-05
1.47653e-05
1.39788e-05
1.32393e-05
1.25218e-05
1.18955e-05
1.11191e-05
1.08437e-05
8.94321e-06
9.73932e-06
6.35962e-11
6.35962e-11
-0.0282544
0.0282544
0.038741
0.0375699
0.0331777
0.0280243
0.0230972
0.0188235
0.0153293
0.0125738
0.0104408
0.0087974
0.00752359
0.00652315
0.00572377
0.00507309
0.00453393
0.00407991
0.00369219
0.00335721
0.00306498
0.00280795
0.0025803
0.00237751
0.00219595
0.00203266
0.0018852
0.00175155
0.00163003
0.00151917
0.00141776
0.00132475
0.00123924
0.00116042
0.00108764
0.00102029
0.000957865
0.000899892
0.00084598
0.000795771
0.000748946
0.000705226
0.00066436
0.000626121
0.000590307
0.000556734
0.000525238
0.000495667
0.000467886
0.00044177
0.000417205
0.000394087
0.00037232
0.000351816
0.000332494
0.000314278
0.000297101
0.000280897
0.000265607
0.000251175
0.00023755
0.000224684
0.000212532
0.000201052
0.000190206
0.000179956
0.000170268
0.000161111
0.000152453
0.000144268
0.000136527
0.000129207
0.000122284
0.000115736
0.000109542
0.000103682
9.81385e-05
9.28935e-05
8.79308e-05
8.3235e-05
7.87914e-05
7.45865e-05
7.06071e-05
6.6841e-05
6.32767e-05
5.99032e-05
5.67103e-05
5.36881e-05
5.08276e-05
4.81201e-05
4.55574e-05
4.31322e-05
4.08352e-05
3.86667e-05
3.65926e-05
3.46966e-05
3.26324e-05
3.13738e-05
2.71596e-05
2.87567e-05
6.26385e-10
6.26385e-10
-0.0177597
0.0177597
0.0281239
0.029097
0.0269195
0.0237
0.0203368
0.0172614
0.0146483
0.01252
0.0108216
0.00947163
0.00839007
0.00751005
0.00678037
0.00616368
0.0056334
0.00517064
0.00476199
0.00439774
0.0040707
0.00377535
0.00350739
0.00326337
0.00304046
0.00283626
0.00264874
0.00247619
0.00231709
0.00217011
0.00203411
0.00190807
0.00179108
0.00168234
0.00158115
0.00148686
0.00139891
0.00131677
0.00124
0.00116817
0.00110091
0.00103788
0.000978771
0.000923296
0.000871201
0.000822252
0.000776232
0.000732945
0.000692209
0.000653857
0.000617734
0.000583699
0.000551618
0.000521372
0.000492845
0.000465932
0.000440537
0.000416566
0.000393937
0.000372568
0.000352387
0.000333323
0.000315312
0.000298293
0.000282209
0.000267007
0.000252637
0.000239051
0.000226206
0.00021406
0.000202574
0.000191711
0.000181436
0.000171717
0.000162524
0.000153827
0.000145599
0.000137814
0.000130448
0.000123479
0.000116884
0.000110643
0.000104738
9.91486e-05
9.38591e-05
8.88531e-05
8.41151e-05
7.96307e-05
7.53863e-05
7.13691e-05
6.75668e-05
6.39683e-05
6.05613e-05
5.73411e-05
5.42743e-05
5.14311e-05
4.84696e-05
4.63807e-05
4.08583e-05
4.27899e-05
9.83176e-10
9.83176e-10
-0.00966197
0.00966197
0.0165164
0.017616
0.016649
0.0149526
0.0130935
0.0113491
0.00984095
0.00859621
0.00759149
0.00678379
0.00612854
0.00558764
0.00513167
0.00473918
0.004395
0.00408851
0.00381232
0.00356119
0.00333131
0.00311981
0.00292449
0.00274362
0.00257574
0.00241962
0.00227424
0.00213867
0.00201211
0.00189384
0.00178323
0.00167968
0.00158268
0.00149174
0.00140643
0.00132637
0.00125117
0.00118051
0.00111409
0.00105162
0.000992835
0.000937507
0.000885409
0.000836336
0.000790098
0.000746518
0.000705431
0.000666685
0.000630138
0.000595657
0.000563118
0.000532406
0.000503412
0.000476036
0.000450183
0.000425764
0.000402697
0.000380904
0.000360312
0.000340852
0.000322459
0.000305075
0.000288641
0.000273104
0.000258414
0.000244523
0.000231388
0.000218966
0.000207217
0.000196105
0.000185594
0.000175651
0.000166245
0.000157346
0.000148928
0.000140962
0.000133426
0.000126294
0.000119546
0.000113161
0.000107118
0.0001014
9.5988e-05
9.08663e-05
8.6019e-05
8.14313e-05
7.70892e-05
7.29794e-05
6.90895e-05
6.54078e-05
6.1923e-05
5.86248e-05
5.55024e-05
5.255e-05
4.97426e-05
4.71257e-05
4.44497e-05
4.24485e-05
3.76936e-05
3.92154e-05
8.96948e-10
8.96948e-10
-0.00306442
0.00306442
0.00542174
0.00585221
0.00557284
0.00504141
0.00444942
0.0038898
0.00340389
0.00300174
0.00267648
0.00241447
0.00220132
0.00202462
0.0018748
0.00174488
0.00162995
0.00152662
0.00143256
0.00134616
0.00126624
0.00119198
0.00112274
0.00105803
0.000997422
0.000940588
0.00088724
0.000837122
0.00079
0.000745672
0.000703957
0.000664679
0.000627682
0.000592826
0.000559976
0.000529007
0.000499804
0.000472263
0.000446283
0.00042177
0.000398637
0.000376805
0.000356196
0.000336739
0.000318367
0.000301018
0.000284633
0.000269156
0.000254535
0.000240722
0.000227671
0.000215339
0.000203685
0.00019267
0.00018226
0.000172419
0.000163116
0.000154322
0.000146007
0.000138145
0.000130711
0.000123681
0.000117033
0.000110745
0.000104799
9.91742e-05
9.3854e-05
8.88215e-05
8.40609e-05
7.95573e-05
7.52967e-05
7.12657e-05
6.7452e-05
6.38435e-05
6.04293e-05
5.71987e-05
5.41417e-05
5.1249e-05
4.85116e-05
4.59211e-05
4.34697e-05
4.11497e-05
3.89541e-05
3.68761e-05
3.49094e-05
3.30481e-05
3.12863e-05
2.96189e-05
2.80406e-05
2.65468e-05
2.51329e-05
2.37947e-05
2.25279e-05
2.13296e-05
2.01911e-05
1.91268e-05
1.80485e-05
1.72156e-05
1.53512e-05
1.58604e-05
4.07966e-10
4.07966e-10
0.00306439
-0.00306439
-0.00542171
-0.00585224
-0.00557286
-0.00504138
-0.00444941
-0.00388983
-0.00340392
-0.00300175
-0.00267648
-0.00241447
-0.00220132
-0.00202463
-0.00187482
-0.00174489
-0.00162996
-0.00152663
-0.00143257
-0.00134616
-0.00126625
-0.001192
-0.00112276
-0.00105804
-0.000997432
-0.000940602
-0.000887252
-0.00083713
-0.00079001
-0.000745684
-0.000703964
-0.000664686
-0.000627691
-0.000592833
-0.000559981
-0.000529012
-0.00049981
-0.000472268
-0.000446286
-0.000421773
-0.00039864
-0.000376807
-0.000356197
-0.00033674
-0.000318368
-0.000301018
-0.000284632
-0.000269155
-0.000254534
-0.000240721
-0.00022767
-0.000215337
-0.000203683
-0.000192668
-0.000182257
-0.000172417
-0.000163114
-0.000154319
-0.000146004
-0.000138142
-0.000130708
-0.000123678
-0.00011703
-0.000110742
-0.000104796
-9.91711e-05
-9.38509e-05
-8.88182e-05
-8.40575e-05
-7.95537e-05
-7.52929e-05
-7.12618e-05
-6.74478e-05
-6.38391e-05
-6.04245e-05
-5.71935e-05
-5.41361e-05
-5.12429e-05
-4.8505e-05
-4.5914e-05
-4.34619e-05
-4.11412e-05
-3.89448e-05
-3.6866e-05
-3.48985e-05
-3.30362e-05
-3.12736e-05
-2.96052e-05
-2.8026e-05
-2.65313e-05
-2.51165e-05
-2.37775e-05
-2.251e-05
-2.13113e-05
-2.01725e-05
-1.91083e-05
-1.80306e-05
-1.71988e-05
-1.53371e-05
-1.58486e-05
-2.73214e-10
-2.73214e-10
0.00966195
-0.00966195
-0.0165163
-0.017616
-0.016649
-0.0149526
-0.0130935
-0.0113491
-0.00984097
-0.00859622
-0.00759149
-0.00678379
-0.00612854
-0.00558765
-0.00513168
-0.00473919
-0.004395
-0.00408852
-0.00381233
-0.0035612
-0.00333132
-0.00311982
-0.00292451
-0.00274363
-0.00257575
-0.00241963
-0.00227425
-0.00213868
-0.00201212
-0.00189385
-0.00178324
-0.00167969
-0.00158268
-0.00149174
-0.00140644
-0.00132637
-0.00125117
-0.00118051
-0.00111409
-0.00105162
-0.000992837
-0.000937508
-0.00088541
-0.000836337
-0.000790098
-0.000746518
-0.000705431
-0.000666685
-0.000630138
-0.000595656
-0.000563117
-0.000532404
-0.000503411
-0.000476034
-0.000450181
-0.000425762
-0.000402695
-0.000380902
-0.000360309
-0.000340849
-0.000322457
-0.000305072
-0.000288638
-0.000273101
-0.000258411
-0.000244521
-0.000231385
-0.000218963
-0.000207214
-0.000196102
-0.000185591
-0.000175648
-0.000166241
-0.000157343
-0.000148924
-0.000140958
-0.000133421
-0.000126289
-0.000119541
-0.000113155
-0.000107112
-0.000101393
-9.59801e-05
-9.08577e-05
-8.60096e-05
-8.14211e-05
-7.70782e-05
-7.29676e-05
-6.90769e-05
-6.53944e-05
-6.19089e-05
-5.86101e-05
-5.54872e-05
-5.25343e-05
-4.97268e-05
-4.71099e-05
-4.44344e-05
-4.24343e-05
-3.76819e-05
-3.92059e-05
-8.64482e-10
-8.64482e-10
0.0177598
-0.0177598
-0.0281239
-0.029097
-0.0269195
-0.0237001
-0.0203368
-0.0172614
-0.0146483
-0.01252
-0.0108216
-0.00947163
-0.00839007
-0.00751005
-0.00678038
-0.0061637
-0.0056334
-0.00517064
-0.00476199
-0.00439776
-0.00407071
-0.00377535
-0.0035074
-0.00326339
-0.00304047
-0.00283626
-0.00264875
-0.0024762
-0.00231709
-0.00217011
-0.00203411
-0.00190807
-0.00179108
-0.00168235
-0.00158115
-0.00148686
-0.00139891
-0.00131677
-0.00124
-0.00116817
-0.00110091
-0.00103788
-0.000978771
-0.000923296
-0.000871202
-0.000822252
-0.000776232
-0.000732945
-0.000692208
-0.000653856
-0.000617733
-0.000583698
-0.000551617
-0.00052137
-0.000492843
-0.000465931
-0.000440535
-0.000416565
-0.000393935
-0.000372567
-0.000352385
-0.000333321
-0.00031531
-0.000298291
-0.000282207
-0.000267005
-0.000252635
-0.000239049
-0.000226204
-0.000214058
-0.000202571
-0.000191708
-0.000181434
-0.000171715
-0.000162521
-0.000153824
-0.000145595
-0.00013781
-0.000130444
-0.000123475
-0.000116879
-0.000110638
-0.000104732
-9.91424e-05
-9.38524e-05
-8.88458e-05
-8.41072e-05
-7.96223e-05
-7.53774e-05
-7.13596e-05
-6.75568e-05
-6.39578e-05
-6.05504e-05
-5.733e-05
-5.42632e-05
-5.14201e-05
-4.84592e-05
-4.63711e-05
-4.08507e-05
-4.27842e-05
-1.12907e-09
-1.12907e-09
0.0282545
-0.0282545
-0.038741
-0.0375699
-0.0331777
-0.0280244
-0.0230972
-0.0188234
-0.0153293
-0.0125738
-0.0104408
-0.00879741
-0.0075236
-0.00652316
-0.00572377
-0.00507311
-0.00453394
-0.0040799
-0.00369219
-0.00335723
-0.00306499
-0.00280794
-0.0025803
-0.00237752
-0.00219595
-0.00203266
-0.0018852
-0.00175156
-0.00163003
-0.00151918
-0.00141777
-0.00132476
-0.00123924
-0.00116043
-0.00108764
-0.0010203
-0.000957865
-0.000899894
-0.000845981
-0.000795771
-0.000748946
-0.000705227
-0.00066436
-0.000626121
-0.000590307
-0.000556734
-0.000525238
-0.000495667
-0.000467886
-0.00044177
-0.000417205
-0.000394086
-0.000372319
-0.000351815
-0.000332493
-0.000314278
-0.0002971
-0.000280896
-0.000265606
-0.000251174
-0.000237549
-0.000224683
-0.000212531
-0.000201052
-0.000190205
-0.000179955
-0.000170267
-0.00016111
-0.000152452
-0.000144267
-0.000136526
-0.000129206
-0.000122283
-0.000115735
-0.000109541
-0.000103681
-9.81369e-05
-9.28917e-05
-8.79288e-05
-8.32328e-05
-7.8789e-05
-7.45838e-05
-7.06042e-05
-6.68378e-05
-6.32732e-05
-5.98994e-05
-5.67062e-05
-5.36837e-05
-5.08229e-05
-4.81152e-05
-4.55522e-05
-4.31267e-05
-4.08296e-05
-3.86611e-05
-3.6587e-05
-3.46911e-05
-3.26274e-05
-3.13693e-05
-2.71564e-05
-2.87551e-05
-9.54875e-10
-9.54875e-10
0.0370799
-0.0370799
-0.0391133
-0.0336313
-0.0272525
-0.0213215
-0.0162805
-0.0122495
-0.00917273
-0.006904
-0.00526868
-0.00410327
-0.00327337
-0.00267716
-0.00224163
-0.0019162
-0.00166663
-0.00147001
-0.00131108
-0.0011796
-0.00106865
-0.000973488
-0.000890791
-0.000818145
-0.00075378
-0.000696354
-0.00064482
-0.000598342
-0.000556244
-0.000517972
-0.000483061
-0.000451115
-0.000421802
-0.000394839
-0.000369975
-0.000346999
-0.000325725
-0.00030599
-0.000287651
-0.000270583
-0.000254675
-0.000239829
-0.000225956
-0.000212978
-0.000200826
-0.000189435
-0.000178749
-0.000168716
-0.00015929
-0.000150428
-0.000142092
-0.000134245
-0.000126855
-0.000119893
-0.000113331
-0.000107143
-0.000101307
-9.57996e-05
-9.06017e-05
-8.56944e-05
-8.10603e-05
-7.66831e-05
-7.25479e-05
-6.86405e-05
-6.49476e-05
-6.1457e-05
-5.81571e-05
-5.50371e-05
-5.20867e-05
-4.92966e-05
-4.66576e-05
-4.41614e-05
-4.18001e-05
-3.95661e-05
-3.74526e-05
-3.54527e-05
-3.35604e-05
-3.17697e-05
-3.00752e-05
-2.84714e-05
-2.69536e-05
-2.55171e-05
-2.41574e-05
-2.28704e-05
-2.16522e-05
-2.04991e-05
-1.94075e-05
-1.83742e-05
-1.7396e-05
-1.64701e-05
-1.55935e-05
-1.47641e-05
-1.39775e-05
-1.32381e-05
-1.25206e-05
-1.18944e-05
-1.11182e-05
-1.08431e-05
-8.94305e-06
-9.74016e-06
-5.21257e-10
-5.21257e-10
0
0
0
0
0
0
0
0
0
0
0
0
0
0
0
0
0
0
0
0
0
0
0
0
0
0
0
0
0
0
0
0
0
0
0
0
0
0
0
0
0
0
0
0
0
0
0
0
0
0
0
0
0
0
0
0
0
0
0
0
0
0
0
0
0
0
0
0
0
0
0
0
0
0
0
0
0
0
0
0
0
0
0
0
0
0
0
0
0
0
0
0
0
0
0
0
0
0
0
0
0
0
0
0
0
0
0
0
0
0
0
0
0
0
0
0
0
0
0
0
0
0
0
0
0
0
0
0
0
0
0
0
0
0
0
0
0
0
0
0
0
0
0
0
0
0
0
0
0
0
0
0
0
0
0
0
0
0
0
0
0
0
0
0
0
0
0
0
0
0
0
0
0
0
0
0
0
0
0
0
0
0
0
0
0
0
0
0
0
0
0
0
0
0
0
0
0
0
0
0
0
0
0
0
