# vtk DataFile Version 2.0
FlowField
ASCII
DATASET STRUCTURED_GRID
DIMENSIONS 102 1 12 
POINTS 1224 double
0 0 0
0.3 0 0
0.6 0 0
0.9 0 0
1.2 0 0
1.5 0 0
1.8 0 0
2.1 0 0
2.4 0 0
2.7 0 0
3 0 0
3.3 0 0
3.6 0 0
3.9 0 0
4.2 0 0
4.5 0 0
4.8 0 0
5.1 0 0
5.4 0 0
5.7 0 0
6 0 0
6.3 0 0
6.6 0 0
6.9 0 0
7.2 0 0
7.5 0 0
7.8 0 0
8.1 0 0
8.4 0 0
8.7 0 0
9 0 0
9.3 0 0
9.6 0 0
9.9 0 0
10.2 0 0
10.5 0 0
10.8 0 0
11.1 0 0
11.4 0 0
11.7 0 0
12 0 0
12.3 0 0
12.6 0 0
12.9 0 0
13.2 0 0
13.5 0 0
13.8 0 0
14.1 0 0
14.4 0 0
14.7 0 0
15 0 0
15.3 0 0
15.6 0 0
15.9 0 0
16.2 0 0
16.5 0 0
16.8 0 0
17.1 0 0
17.4 0 0
17.7 0 0
18 0 0
18.3 0 0
18.6 0 0
18.9 0 0
19.2 0 0
19.5 0 0
19.8 0 0
20.1 0 0
20.4 0 0
20.7 0 0
21 0 0
21.3 0 0
21.6 0 0
21.9 0 0
22.2 0 0
22.5 0 0
22.8 0 0
23.1 0 0
23.4 0 0
23.7 0 0
24 0 0
24.3 0 0
24.6 0 0
24.9 0 0
25.2 0 0
25.5 0 0
25.8 0 0
26.1 0 0
26.4 0 0
26.7 0 0
27 0 0
27.3 0 0
27.6 0 0
27.9 0 0
28.2 0 0
28.5 0 0
28.8 0 0
29.1 0 0
29.4 0 0
29.7 0 0
30 0 0
30.3 0 0
0 0.1 0
0.3 0.1 0
0.6 0.1 0
0.9 0.1 0
1.2 0.1 0
1.5 0.1 0
1.8 0.1 0
2.1 0.1 0
2.4 0.1 0
2.7 0.1 0
3 0.1 0
3.3 0.1 0
3.6 0.1 0
3.9 0.1 0
4.2 0.1 0
4.5 0.1 0
4.8 0.1 0
5.1 0.1 0
5.4 0.1 0
5.7 0.1 0
6 0.1 0
6.3 0.1 0
6.6 0.1 0
6.9 0.1 0
7.2 0.1 0
7.5 0.1 0
7.8 0.1 0
8.1 0.1 0
8.4 0.1 0
8.7 0.1 0
9 0.1 0
9.3 0.1 0
9.6 0.1 0
9.9 0.1 0
10.2 0.1 0
10.5 0.1 0
10.8 0.1 0
11.1 0.1 0
11.4 0.1 0
11.7 0.1 0
12 0.1 0
12.3 0.1 0
12.6 0.1 0
12.9 0.1 0
13.2 0.1 0
13.5 0.1 0
13.8 0.1 0
14.1 0.1 0
14.4 0.1 0
14.7 0.1 0
15 0.1 0
15.3 0.1 0
15.6 0.1 0
15.9 0.1 0
16.2 0.1 0
16.5 0.1 0
16.8 0.1 0
17.1 0.1 0
17.4 0.1 0
17.7 0.1 0
18 0.1 0
18.3 0.1 0
18.6 0.1 0
18.9 0.1 0
19.2 0.1 0
19.5 0.1 0
19.8 0.1 0
20.1 0.1 0
20.4 0.1 0
20.7 0.1 0
21 0.1 0
21.3 0.1 0
21.6 0.1 0
21.9 0.1 0
22.2 0.1 0
22.5 0.1 0
22.8 0.1 0
23.1 0.1 0
23.4 0.1 0
23.7 0.1 0
24 0.1 0
24.3 0.1 0
24.6 0.1 0
24.9 0.1 0
25.2 0.1 0
25.5 0.1 0
25.8 0.1 0
26.1 0.1 0
26.4 0.1 0
26.7 0.1 0
27 0.1 0
27.3 0.1 0
27.6 0.1 0
27.9 0.1 0
28.2 0.1 0
28.5 0.1 0
28.8 0.1 0
29.1 0.1 0
29.4 0.1 0
29.7 0.1 0
30 0.1 0
30.3 0.1 0
0 0.2 0
0.3 0.2 0
0.6 0.2 0
0.9 0.2 0
1.2 0.2 0
1.5 0.2 0
1.8 0.2 0
2.1 0.2 0
2.4 0.2 0
2.7 0.2 0
3 0.2 0
3.3 0.2 0
3.6 0.2 0
3.9 0.2 0
4.2 0.2 0
4.5 0.2 0
4.8 0.2 0
5.1 0.2 0
5.4 0.2 0
5.7 0.2 0
6 0.2 0
6.3 0.2 0
6.6 0.2 0
6.9 0.2 0
7.2 0.2 0
7.5 0.2 0
7.8 0.2 0
8.1 0.2 0
8.4 0.2 0
8.7 0.2 0
9 0.2 0
9.3 0.2 0
9.6 0.2 0
9.9 0.2 0
10.2 0.2 0
10.5 0.2 0
10.8 0.2 0
11.1 0.2 0
11.4 0.2 0
11.7 0.2 0
12 0.2 0
12.3 0.2 0
12.6 0.2 0
12.9 0.2 0
13.2 0.2 0
13.5 0.2 0
13.8 0.2 0
14.1 0.2 0
14.4 0.2 0
14.7 0.2 0
15 0.2 0
15.3 0.2 0
15.6 0.2 0
15.9 0.2 0
16.2 0.2 0
16.5 0.2 0
16.8 0.2 0
17.1 0.2 0
17.4 0.2 0
17.7 0.2 0
18 0.2 0
18.3 0.2 0
18.6 0.2 0
18.9 0.2 0
19.2 0.2 0
19.5 0.2 0
19.8 0.2 0
20.1 0.2 0
20.4 0.2 0
20.7 0.2 0
21 0.2 0
21.3 0.2 0
21.6 0.2 0
21.9 0.2 0
22.2 0.2 0
22.5 0.2 0
22.8 0.2 0
23.1 0.2 0
23.4 0.2 0
23.7 0.2 0
24 0.2 0
24.3 0.2 0
24.6 0.2 0
24.9 0.2 0
25.2 0.2 0
25.5 0.2 0
25.8 0.2 0
26.1 0.2 0
26.4 0.2 0
26.7 0.2 0
27 0.2 0
27.3 0.2 0
27.6 0.2 0
27.9 0.2 0
28.2 0.2 0
28.5 0.2 0
28.8 0.2 0
29.1 0.2 0
29.4 0.2 0
29.7 0.2 0
30 0.2 0
30.3 0.2 0
0 0.3 0
0.3 0.3 0
0.6 0.3 0
0.9 0.3 0
1.2 0.3 0
1.5 0.3 0
1.8 0.3 0
2.1 0.3 0
2.4 0.3 0
2.7 0.3 0
3 0.3 0
3.3 0.3 0
3.6 0.3 0
3.9 0.3 0
4.2 0.3 0
4.5 0.3 0
4.8 0.3 0
5.1 0.3 0
5.4 0.3 0
5.7 0.3 0
6 0.3 0
6.3 0.3 0
6.6 0.3 0
6.9 0.3 0
7.2 0.3 0
7.5 0.3 0
7.8 0.3 0
8.1 0.3 0
8.4 0.3 0
8.7 0.3 0
9 0.3 0
9.3 0.3 0
9.6 0.3 0
9.9 0.3 0
10.2 0.3 0
10.5 0.3 0
10.8 0.3 0
11.1 0.3 0
11.4 0.3 0
11.7 0.3 0
12 0.3 0
12.3 0.3 0
12.6 0.3 0
12.9 0.3 0
13.2 0.3 0
13.5 0.3 0
13.8 0.3 0
14.1 0.3 0
14.4 0.3 0
14.7 0.3 0
15 0.3 0
15.3 0.3 0
15.6 0.3 0
15.9 0.3 0
16.2 0.3 0
16.5 0.3 0
16.8 0.3 0
17.1 0.3 0
17.4 0.3 0
17.7 0.3 0
18 0.3 0
18.3 0.3 0
18.6 0.3 0
18.9 0.3 0
19.2 0.3 0
19.5 0.3 0
19.8 0.3 0
20.1 0.3 0
20.4 0.3 0
20.7 0.3 0
21 0.3 0
21.3 0.3 0
21.6 0.3 0
21.9 0.3 0
22.2 0.3 0
22.5 0.3 0
22.8 0.3 0
23.1 0.3 0
23.4 0.3 0
23.7 0.3 0
24 0.3 0
24.3 0.3 0
24.6 0.3 0
24.9 0.3 0
25.2 0.3 0
25.5 0.3 0
25.8 0.3 0
26.1 0.3 0
26.4 0.3 0
26.7 0.3 0
27 0.3 0
27.3 0.3 0
27.6 0.3 0
27.9 0.3 0
28.2 0.3 0
28.5 0.3 0
28.8 0.3 0
29.1 0.3 0
29.4 0.3 0
29.7 0.3 0
30 0.3 0
30.3 0.3 0
0 0.4 0
0.3 0.4 0
0.6 0.4 0
0.9 0.4 0
1.2 0.4 0
1.5 0.4 0
1.8 0.4 0
2.1 0.4 0
2.4 0.4 0
2.7 0.4 0
3 0.4 0
3.3 0.4 0
3.6 0.4 0
3.9 0.4 0
4.2 0.4 0
4.5 0.4 0
4.8 0.4 0
5.1 0.4 0
5.4 0.4 0
5.7 0.4 0
6 0.4 0
6.3 0.4 0
6.6 0.4 0
6.9 0.4 0
7.2 0.4 0
7.5 0.4 0
7.8 0.4 0
8.1 0.4 0
8.4 0.4 0
8.7 0.4 0
9 0.4 0
9.3 0.4 0
9.6 0.4 0
9.9 0.4 0
10.2 0.4 0
10.5 0.4 0
10.8 0.4 0
11.1 0.4 0
11.4 0.4 0
11.7 0.4 0
12 0.4 0
12.3 0.4 0
12.6 0.4 0
12.9 0.4 0
13.2 0.4 0
13.5 0.4 0
13.8 0.4 0
14.1 0.4 0
14.4 0.4 0
14.7 0.4 0
15 0.4 0
15.3 0.4 0
15.6 0.4 0
15.9 0.4 0
16.2 0.4 0
16.5 0.4 0
16.8 0.4 0
17.1 0.4 0
17.4 0.4 0
17.7 0.4 0
18 0.4 0
18.3 0.4 0
18.6 0.4 0
18.9 0.4 0
19.2 0.4 0
19.5 0.4 0
19.8 0.4 0
20.1 0.4 0
20.4 0.4 0
20.7 0.4 0
21 0.4 0
21.3 0.4 0
21.6 0.4 0
21.9 0.4 0
22.2 0.4 0
22.5 0.4 0
22.8 0.4 0
23.1 0.4 0
23.4 0.4 0
23.7 0.4 0
24 0.4 0
24.3 0.4 0
24.6 0.4 0
24.9 0.4 0
25.2 0.4 0
25.5 0.4 0
25.8 0.4 0
26.1 0.4 0
26.4 0.4 0
26.7 0.4 0
27 0.4 0
27.3 0.4 0
27.6 0.4 0
27.9 0.4 0
28.2 0.4 0
28.5 0.4 0
28.8 0.4 0
29.1 0.4 0
29.4 0.4 0
29.7 0.4 0
30 0.4 0
30.3 0.4 0
0 0.5 0
0.3 0.5 0
0.6 0.5 0
0.9 0.5 0
1.2 0.5 0
1.5 0.5 0
1.8 0.5 0
2.1 0.5 0
2.4 0.5 0
2.7 0.5 0
3 0.5 0
3.3 0.5 0
3.6 0.5 0
3.9 0.5 0
4.2 0.5 0
4.5 0.5 0
4.8 0.5 0
5.1 0.5 0
5.4 0.5 0
5.7 0.5 0
6 0.5 0
6.3 0.5 0
6.6 0.5 0
6.9 0.5 0
7.2 0.5 0
7.5 0.5 0
7.8 0.5 0
8.1 0.5 0
8.4 0.5 0
8.7 0.5 0
9 0.5 0
9.3 0.5 0
9.6 0.5 0
9.9 0.5 0
10.2 0.5 0
10.5 0.5 0
10.8 0.5 0
11.1 0.5 0
11.4 0.5 0
11.7 0.5 0
12 0.5 0
12.3 0.5 0
12.6 0.5 0
12.9 0.5 0
13.2 0.5 0
13.5 0.5 0
13.8 0.5 0
14.1 0.5 0
14.4 0.5 0
14.7 0.5 0
15 0.5 0
15.3 0.5 0
15.6 0.5 0
15.9 0.5 0
16.2 0.5 0
16.5 0.5 0
16.8 0.5 0
17.1 0.5 0
17.4 0.5 0
17.7 0.5 0
18 0.5 0
18.3 0.5 0
18.6 0.5 0
18.9 0.5 0
19.2 0.5 0
19.5 0.5 0
19.8 0.5 0
20.1 0.5 0
20.4 0.5 0
20.7 0.5 0
21 0.5 0
21.3 0.5 0
21.6 0.5 0
21.9 0.5 0
22.2 0.5 0
22.5 0.5 0
22.8 0.5 0
23.1 0.5 0
23.4 0.5 0
23.7 0.5 0
24 0.5 0
24.3 0.5 0
24.6 0.5 0
24.9 0.5 0
25.2 0.5 0
25.5 0.5 0
25.8 0.5 0
26.1 0.5 0
26.4 0.5 0
26.7 0.5 0
27 0.5 0
27.3 0.5 0
27.6 0.5 0
27.9 0.5 0
28.2 0.5 0
28.5 0.5 0
28.8 0.5 0
29.1 0.5 0
29.4 0.5 0
29.7 0.5 0
30 0.5 0
30.3 0.5 0
0 0.6 0
0.3 0.6 0
0.6 0.6 0
0.9 0.6 0
1.2 0.6 0
1.5 0.6 0
1.8 0.6 0
2.1 0.6 0
2.4 0.6 0
2.7 0.6 0
3 0.6 0
3.3 0.6 0
3.6 0.6 0
3.9 0.6 0
4.2 0.6 0
4.5 0.6 0
4.8 0.6 0
5.1 0.6 0
5.4 0.6 0
5.7 0.6 0
6 0.6 0
6.3 0.6 0
6.6 0.6 0
6.9 0.6 0
7.2 0.6 0
7.5 0.6 0
7.8 0.6 0
8.1 0.6 0
8.4 0.6 0
8.7 0.6 0
9 0.6 0
9.3 0.6 0
9.6 0.6 0
9.9 0.6 0
10.2 0.6 0
10.5 0.6 0
10.8 0.6 0
11.1 0.6 0
11.4 0.6 0
11.7 0.6 0
12 0.6 0
12.3 0.6 0
12.6 0.6 0
12.9 0.6 0
13.2 0.6 0
13.5 0.6 0
13.8 0.6 0
14.1 0.6 0
14.4 0.6 0
14.7 0.6 0
15 0.6 0
15.3 0.6 0
15.6 0.6 0
15.9 0.6 0
16.2 0.6 0
16.5 0.6 0
16.8 0.6 0
17.1 0.6 0
17.4 0.6 0
17.7 0.6 0
18 0.6 0
18.3 0.6 0
18.6 0.6 0
18.9 0.6 0
19.2 0.6 0
19.5 0.6 0
19.8 0.6 0
20.1 0.6 0
20.4 0.6 0
20.7 0.6 0
21 0.6 0
21.3 0.6 0
21.6 0.6 0
21.9 0.6 0
22.2 0.6 0
22.5 0.6 0
22.8 0.6 0
23.1 0.6 0
23.4 0.6 0
23.7 0.6 0
24 0.6 0
24.3 0.6 0
24.6 0.6 0
24.9 0.6 0
25.2 0.6 0
25.5 0.6 0
25.8 0.6 0
26.1 0.6 0
26.4 0.6 0
26.7 0.6 0
27 0.6 0
27.3 0.6 0
27.6 0.6 0
27.9 0.6 0
28.2 0.6 0
28.5 0.6 0
28.8 0.6 0
29.1 0.6 0
29.4 0.6 0
29.7 0.6 0
30 0.6 0
30.3 0.6 0
0 0.7 0
0.3 0.7 0
0.6 0.7 0
0.9 0.7 0
1.2 0.7 0
1.5 0.7 0
1.8 0.7 0
2.1 0.7 0
2.4 0.7 0
2.7 0.7 0
3 0.7 0
3.3 0.7 0
3.6 0.7 0
3.9 0.7 0
4.2 0.7 0
4.5 0.7 0
4.8 0.7 0
5.1 0.7 0
5.4 0.7 0
5.7 0.7 0
6 0.7 0
6.3 0.7 0
6.6 0.7 0
6.9 0.7 0
7.2 0.7 0
7.5 0.7 0
7.8 0.7 0
8.1 0.7 0
8.4 0.7 0
8.7 0.7 0
9 0.7 0
9.3 0.7 0
9.6 0.7 0
9.9 0.7 0
10.2 0.7 0
10.5 0.7 0
10.8 0.7 0
11.1 0.7 0
11.4 0.7 0
11.7 0.7 0
12 0.7 0
12.3 0.7 0
12.6 0.7 0
12.9 0.7 0
13.2 0.7 0
13.5 0.7 0
13.8 0.7 0
14.1 0.7 0
14.4 0.7 0
14.7 0.7 0
15 0.7 0
15.3 0.7 0
15.6 0.7 0
15.9 0.7 0
16.2 0.7 0
16.5 0.7 0
16.8 0.7 0
17.1 0.7 0
17.4 0.7 0
17.7 0.7 0
18 0.7 0
18.3 0.7 0
18.6 0.7 0
18.9 0.7 0
19.2 0.7 0
19.5 0.7 0
19.8 0.7 0
20.1 0.7 0
20.4 0.7 0
20.7 0.7 0
21 0.7 0
21.3 0.7 0
21.6 0.7 0
21.9 0.7 0
22.2 0.7 0
22.5 0.7 0
22.8 0.7 0
23.1 0.7 0
23.4 0.7 0
23.7 0.7 0
24 0.7 0
24.3 0.7 0
24.6 0.7 0
24.9 0.7 0
25.2 0.7 0
25.5 0.7 0
25.8 0.7 0
26.1 0.7 0
26.4 0.7 0
26.7 0.7 0
27 0.7 0
27.3 0.7 0
27.6 0.7 0
27.9 0.7 0
28.2 0.7 0
28.5 0.7 0
28.8 0.7 0
29.1 0.7 0
29.4 0.7 0
29.7 0.7 0
30 0.7 0
30.3 0.7 0
0 0.8 0
0.3 0.8 0
0.6 0.8 0
0.9 0.8 0
1.2 0.8 0
1.5 0.8 0
1.8 0.8 0
2.1 0.8 0
2.4 0.8 0
2.7 0.8 0
3 0.8 0
3.3 0.8 0
3.6 0.8 0
3.9 0.8 0
4.2 0.8 0
4.5 0.8 0
4.8 0.8 0
5.1 0.8 0
5.4 0.8 0
5.7 0.8 0
6 0.8 0
6.3 0.8 0
6.6 0.8 0
6.9 0.8 0
7.2 0.8 0
7.5 0.8 0
7.8 0.8 0
8.1 0.8 0
8.4 0.8 0
8.7 0.8 0
9 0.8 0
9.3 0.8 0
9.6 0.8 0
9.9 0.8 0
10.2 0.8 0
10.5 0.8 0
10.8 0.8 0
11.1 0.8 0
11.4 0.8 0
11.7 0.8 0
12 0.8 0
12.3 0.8 0
12.6 0.8 0
12.9 0.8 0
13.2 0.8 0
13.5 0.8 0
13.8 0.8 0
14.1 0.8 0
14.4 0.8 0
14.7 0.8 0
15 0.8 0
15.3 0.8 0
15.6 0.8 0
15.9 0.8 0
16.2 0.8 0
16.5 0.8 0
16.8 0.8 0
17.1 0.8 0
17.4 0.8 0
17.7 0.8 0
18 0.8 0
18.3 0.8 0
18.6 0.8 0
18.9 0.8 0
19.2 0.8 0
19.5 0.8 0
19.8 0.8 0
20.1 0.8 0
20.4 0.8 0
20.7 0.8 0
21 0.8 0
21.3 0.8 0
21.6 0.8 0
21.9 0.8 0
22.2 0.8 0
22.5 0.8 0
22.8 0.8 0
23.1 0.8 0
23.4 0.8 0
23.7 0.8 0
24 0.8 0
24.3 0.8 0
24.6 0.8 0
24.9 0.8 0
25.2 0.8 0
25.5 0.8 0
25.8 0.8 0
26.1 0.8 0
26.4 0.8 0
26.7 0.8 0
27 0.8 0
27.3 0.8 0
27.6 0.8 0
27.9 0.8 0
28.2 0.8 0
28.5 0.8 0
28.8 0.8 0
29.1 0.8 0
29.4 0.8 0
29.7 0.8 0
30 0.8 0
30.3 0.8 0
0 0.9 0
0.3 0.9 0
0.6 0.9 0
0.9 0.9 0
1.2 0.9 0
1.5 0.9 0
1.8 0.9 0
2.1 0.9 0
2.4 0.9 0
2.7 0.9 0
3 0.9 0
3.3 0.9 0
3.6 0.9 0
3.9 0.9 0
4.2 0.9 0
4.5 0.9 0
4.8 0.9 0
5.1 0.9 0
5.4 0.9 0
5.7 0.9 0
6 0.9 0
6.3 0.9 0
6.6 0.9 0
6.9 0.9 0
7.2 0.9 0
7.5 0.9 0
7.8 0.9 0
8.1 0.9 0
8.4 0.9 0
8.7 0.9 0
9 0.9 0
9.3 0.9 0
9.6 0.9 0
9.9 0.9 0
10.2 0.9 0
10.5 0.9 0
10.8 0.9 0
11.1 0.9 0
11.4 0.9 0
11.7 0.9 0
12 0.9 0
12.3 0.9 0
12.6 0.9 0
12.9 0.9 0
13.2 0.9 0
13.5 0.9 0
13.8 0.9 0
14.1 0.9 0
14.4 0.9 0
14.7 0.9 0
15 0.9 0
15.3 0.9 0
15.6 0.9 0
15.9 0.9 0
16.2 0.9 0
16.5 0.9 0
16.8 0.9 0
17.1 0.9 0
17.4 0.9 0
17.7 0.9 0
18 0.9 0
18.3 0.9 0
18.6 0.9 0
18.9 0.9 0
19.2 0.9 0
19.5 0.9 0
19.8 0.9 0
20.1 0.9 0
20.4 0.9 0
20.7 0.9 0
21 0.9 0
21.3 0.9 0
21.6 0.9 0
21.9 0.9 0
22.2 0.9 0
22.5 0.9 0
22.8 0.9 0
23.1 0.9 0
23.4 0.9 0
23.7 0.9 0
24 0.9 0
24.3 0.9 0
24.6 0.9 0
24.9 0.9 0
25.2 0.9 0
25.5 0.9 0
25.8 0.9 0
26.1 0.9 0
26.4 0.9 0
26.7 0.9 0
27 0.9 0
27.3 0.9 0
27.6 0.9 0
27.9 0.9 0
28.2 0.9 0
28.5 0.9 0
28.8 0.9 0
29.1 0.9 0
29.4 0.9 0
29.7 0.9 0
30 0.9 0
30.3 0.9 0
0 1 0
0.3 1 0
0.6 1 0
0.9 1 0
1.2 1 0
1.5 1 0
1.8 1 0
2.1 1 0
2.4 1 0
2.7 1 0
3 1 0
3.3 1 0
3.6 1 0
3.9 1 0
4.2 1 0
4.5 1 0
4.8 1 0
5.1 1 0
5.4 1 0
5.7 1 0
6 1 0
6.3 1 0
6.6 1 0
6.9 1 0
7.2 1 0
7.5 1 0
7.8 1 0
8.1 1 0
8.4 1 0
8.7 1 0
9 1 0
9.3 1 0
9.6 1 0
9.9 1 0
10.2 1 0
10.5 1 0
10.8 1 0
11.1 1 0
11.4 1 0
11.7 1 0
12 1 0
12.3 1 0
12.6 1 0
12.9 1 0
13.2 1 0
13.5 1 0
13.8 1 0
14.1 1 0
14.4 1 0
14.7 1 0
15 1 0
15.3 1 0
15.6 1 0
15.9 1 0
16.2 1 0
16.5 1 0
16.8 1 0
17.1 1 0
17.4 1 0
17.7 1 0
18 1 0
18.3 1 0
18.6 1 0
18.9 1 0
19.2 1 0
19.5 1 0
19.8 1 0
20.1 1 0
20.4 1 0
20.7 1 0
21 1 0
21.3 1 0
21.6 1 0
21.9 1 0
22.2 1 0
22.5 1 0
22.8 1 0
23.1 1 0
23.4 1 0
23.7 1 0
24 1 0
24.3 1 0
24.6 1 0
24.9 1 0
25.2 1 0
25.5 1 0
25.8 1 0
26.1 1 0
26.4 1 0
26.7 1 0
27 1 0
27.3 1 0
27.6 1 0
27.9 1 0
28.2 1 0
28.5 1 0
28.8 1 0
29.1 1 0
29.4 1 0
29.7 1 0
30 1 0
30.3 1 0
0 1.1 0
0.3 1.1 0
0.6 1.1 0
0.9 1.1 0
1.2 1.1 0
1.5 1.1 0
1.8 1.1 0
2.1 1.1 0
2.4 1.1 0
2.7 1.1 0
3 1.1 0
3.3 1.1 0
3.6 1.1 0
3.9 1.1 0
4.2 1.1 0
4.5 1.1 0
4.8 1.1 0
5.1 1.1 0
5.4 1.1 0
5.7 1.1 0
6 1.1 0
6.3 1.1 0
6.6 1.1 0
6.9 1.1 0
7.2 1.1 0
7.5 1.1 0
7.8 1.1 0
8.1 1.1 0
8.4 1.1 0
8.7 1.1 0
9 1.1 0
9.3 1.1 0
9.6 1.1 0
9.9 1.1 0
10.2 1.1 0
10.5 1.1 0
10.8 1.1 0
11.1 1.1 0
11.4 1.1 0
11.7 1.1 0
12 1.1 0
12.3 1.1 0
12.6 1.1 0
12.9 1.1 0
13.2 1.1 0
13.5 1.1 0
13.8 1.1 0
14.1 1.1 0
14.4 1.1 0
14.7 1.1 0
15 1.1 0
15.3 1.1 0
15.6 1.1 0
15.9 1.1 0
16.2 1.1 0
16.5 1.1 0
16.8 1.1 0
17.1 1.1 0
17.4 1.1 0
17.7 1.1 0
18 1.1 0
18.3 1.1 0
18.6 1.1 0
18.9 1.1 0
19.2 1.1 0
19.5 1.1 0
19.8 1.1 0
20.1 1.1 0
20.4 1.1 0
20.7 1.1 0
21 1.1 0
21.3 1.1 0
21.6 1.1 0
21.9 1.1 0
22.2 1.1 0
22.5 1.1 0
22.8 1.1 0
23.1 1.1 0
23.4 1.1 0
23.7 1.1 0
24 1.1 0
24.3 1.1 0
24.6 1.1 0
24.9 1.1 0
25.2 1.1 0
25.5 1.1 0
25.8 1.1 0
26.1 1.1 0
26.4 1.1 0
26.7 1.1 0
27 1.1 0
27.3 1.1 0
27.6 1.1 0
27.9 1.1 0
28.2 1.1 0
28.5 1.1 0
28.8 1.1 0
29.1 1.1 0
29.4 1.1 0
29.7 1.1 0
30 1.1 0
30.3 1.1 0

POINT_DATA 1224

SCALARS p double
LOOKUP_TABLE default
2.61456
2.61456
2.48418
2.39784
2.32892
2.27373
2.22897
2.19114
2.1573
2.12545
2.09445
2.06374
2.03313
2.00252
1.97192
1.94131
1.9107
1.88009
1.84948
1.81887
1.78826
1.75765
1.72704
1.69643
1.66582
1.63521
1.6046
1.57399
1.54338
1.51277
1.48216
1.45155
1.42094
1.39033
1.35972
1.32911
1.2985
1.26789
1.23728
1.20667
1.17605
1.14544
1.11483
1.08422
1.05361
1.023
0.992393
0.961782
0.931172
0.900561
0.869951
0.83934
0.80873
0.778119
0.747509
0.716898
0.686288
0.655677
0.625067
0.594456
0.563846
0.533235
0.502624
0.472013
0.441403
0.410792
0.380181
0.34957
0.31896
0.288349
0.257738
0.227127
0.196516
0.165905
0.135294
0.104683
0.0740721
0.043461
0.0128499
-0.0177613
-0.0483724
-0.0789837
-0.109595
-0.140206
-0.170817
-0.201429
-0.23204
-0.262652
-0.293263
-0.323875
-0.354486
-0.385098
-0.415709
-0.446321
-0.476933
-0.507544
-0.538157
-0.568766
-0.599386
-0.629981
-0.660406
0.660406
2.61456
2.61456
2.48418
2.39784
2.32892
2.27373
2.22897
2.19114
2.1573
2.12545
2.09445
2.06374
2.03313
2.00252
1.97192
1.94131
1.9107
1.88009
1.84948
1.81887
1.78826
1.75765
1.72704
1.69643
1.66582
1.63521
1.6046
1.57399
1.54338
1.51277
1.48216
1.45155
1.42094
1.39033
1.35972
1.32911
1.2985
1.26789
1.23728
1.20667
1.17605
1.14544
1.11483
1.08422
1.05361
1.023
0.992393
0.961782
0.931172
0.900561
0.869951
0.83934
0.80873
0.778119
0.747509
0.716898
0.686288
0.655677
0.625067
0.594456
0.563846
0.533235
0.502624
0.472013
0.441403
0.410792
0.380181
0.34957
0.31896
0.288349
0.257738
0.227127
0.196516
0.165905
0.135294
0.104683
0.0740721
0.043461
0.0128499
-0.0177613
-0.0483724
-0.0789837
-0.109595
-0.140206
-0.170817
-0.201429
-0.23204
-0.262652
-0.293263
-0.323875
-0.354486
-0.385098
-0.415709
-0.446321
-0.476933
-0.507544
-0.538157
-0.568766
-0.599386
-0.629981
-0.660406
0.660406
2.57634
2.57634
2.48236
2.39976
2.33091
2.27508
2.2297
2.19147
2.15743
2.12549
2.09445
2.06375
2.03313
2.00252
1.97192
1.94131
1.9107
1.88009
1.84948
1.81887
1.78826
1.75765
1.72704
1.69643
1.66582
1.63521
1.6046
1.57399
1.54338
1.51277
1.48216
1.45155
1.42094
1.39033
1.35972
1.32911
1.2985
1.26789
1.23728
1.20667
1.17605
1.14544
1.11483
1.08422
1.05361
1.023
0.992393
0.961782
0.931172
0.900561
0.869951
0.83934
0.80873
0.778119
0.747509
0.716898
0.686288
0.655677
0.625067
0.594456
0.563846
0.533235
0.502624
0.472013
0.441403
0.410792
0.380181
0.34957
0.31896
0.288349
0.257738
0.227127
0.196516
0.165905
0.135294
0.104683
0.0740721
0.043461
0.0128499
-0.0177613
-0.0483725
-0.0789837
-0.109595
-0.140206
-0.170818
-0.201429
-0.23204
-0.262652
-0.293263
-0.323875
-0.354486
-0.385098
-0.415709
-0.446321
-0.476933
-0.507544
-0.538156
-0.568764
-0.599381
-0.629977
-0.660415
0.660415
2.54919
2.54919
2.47952
2.4026
2.33424
2.27757
2.23122
2.19227
2.1578
2.12564
2.09451
2.06376
2.03313
2.00252
1.97192
1.94131
1.9107
1.88009
1.84948
1.81887
1.78826
1.75765
1.72704
1.69643
1.66582
1.63521
1.6046
1.57399
1.54338
1.51277
1.48216
1.45155
1.42094
1.39033
1.35972
1.32911
1.2985
1.26789
1.23728
1.20667
1.17605
1.14544
1.11483
1.08422
1.05361
1.023
0.992393
0.961782
0.931172
0.900561
0.869951
0.83934
0.80873
0.778119
0.747509
0.716898
0.686288
0.655677
0.625067
0.594456
0.563845
0.533235
0.502624
0.472013
0.441403
0.410792
0.380181
0.34957
0.31896
0.288349
0.257738
0.227127
0.196516
0.165905
0.135294
0.104683
0.0740721
0.043461
0.0128499
-0.0177613
-0.0483725
-0.0789837
-0.109595
-0.140206
-0.170818
-0.201429
-0.23204
-0.262652
-0.293263
-0.323875
-0.354486
-0.385098
-0.415709
-0.446321
-0.476933
-0.507544
-0.538155
-0.568759
-0.59936
-0.6299
-0.660397
0.660397
2.5328
2.5328
2.47713
2.40487
2.33721
2.27996
2.23281
2.19318
2.15826
2.12584
2.09459
2.06379
2.03314
2.00252
1.97192
1.94131
1.9107
1.88009
1.84948
1.81887
1.78826
1.75765
1.72704
1.69643
1.66582
1.63521
1.6046
1.57399
1.54338
1.51277
1.48216
1.45155
1.42094
1.39033
1.35972
1.32911
1.2985
1.26789
1.23728
1.20667
1.17605
1.14544
1.11483
1.08422
1.05361
1.023
0.992393
0.961782
0.931172
0.900561
0.869951
0.83934
0.80873
0.778119
0.747509
0.716898
0.686288
0.655677
0.625067
0.594456
0.563845
0.533235
0.502624
0.472013
0.441403
0.410792
0.380181
0.34957
0.31896
0.288349
0.257738
0.227127
0.196516
0.165905
0.135294
0.104683
0.074072
0.043461
0.0128498
-0.0177613
-0.0483725
-0.0789837
-0.109595
-0.140206
-0.170818
-0.201429
-0.23204
-0.262652
-0.293263
-0.323875
-0.354486
-0.385098
-0.415709
-0.446321
-0.476932
-0.507543
-0.538153
-0.568754
-0.599334
-0.629797
-0.660368
0.660368
2.52515
2.52515
2.47584
2.40607
2.33885
2.28132
2.23373
2.19373
2.15854
2.12597
2.09464
2.0638
2.03314
2.00253
1.97192
1.94131
1.9107
1.88009
1.84948
1.81887
1.78826
1.75765
1.72704
1.69643
1.66582
1.63521
1.6046
1.57399
1.54338
1.51277
1.48216
1.45155
1.42094
1.39033
1.35972
1.32911
1.2985
1.26789
1.23728
1.20667
1.17605
1.14544
1.11483
1.08422
1.05361
1.023
0.992393
0.961782
0.931172
0.900561
0.869951
0.83934
0.80873
0.778119
0.747509
0.716898
0.686288
0.655677
0.625067
0.594456
0.563845
0.533235
0.502624
0.472013
0.441403
0.410792
0.380181
0.34957
0.31896
0.288349
0.257738
0.227127
0.196516
0.165905
0.135294
0.104683
0.074072
0.043461
0.0128498
-0.0177613
-0.0483725
-0.0789837
-0.109595
-0.140206
-0.170818
-0.201429
-0.23204
-0.262652
-0.293263
-0.323875
-0.354486
-0.385098
-0.415709
-0.446321
-0.476932
-0.507543
-0.538152
-0.56875
-0.599317
-0.629733
-0.660347
0.660347
2.52515
2.52515
2.47584
2.40607
2.33885
2.28132
2.23373
2.19373
2.15854
2.12597
2.09464
2.0638
2.03314
2.00253
1.97192
1.94131
1.9107
1.88009
1.84948
1.81887
1.78826
1.75765
1.72704
1.69643
1.66582
1.63521
1.6046
1.57399
1.54338
1.51277
1.48216
1.45155
1.42094
1.39033
1.35972
1.32911
1.2985
1.26789
1.23728
1.20667
1.17605
1.14544
1.11483
1.08422
1.05361
1.023
0.992393
0.961782
0.931172
0.900561
0.869951
0.83934
0.80873
0.778119
0.747509
0.716898
0.686288
0.655677
0.625067
0.594456
0.563845
0.533235
0.502624
0.472013
0.441403
0.410792
0.380181
0.34957
0.31896
0.288349
0.257738
0.227127
0.196516
0.165905
0.135294
0.104683
0.074072
0.0434609
0.0128498
-0.0177613
-0.0483725
-0.0789837
-0.109595
-0.140206
-0.170818
-0.201429
-0.23204
-0.262652
-0.293263
-0.323875
-0.354486
-0.385098
-0.415709
-0.446321
-0.476932
-0.507543
-0.538152
-0.56875
-0.599317
-0.629733
-0.660347
0.660347
2.5328
2.5328
2.47713
2.40487
2.33721
2.27996
2.23281
2.19318
2.15826
2.12584
2.09459
2.06379
2.03314
2.00252
1.97192
1.94131
1.9107
1.88009
1.84948
1.81887
1.78826
1.75765
1.72704
1.69643
1.66582
1.63521
1.6046
1.57399
1.54338
1.51277
1.48216
1.45155
1.42094
1.39033
1.35972
1.32911
1.2985
1.26789
1.23728
1.20667
1.17605
1.14544
1.11483
1.08422
1.05361
1.023
0.992393
0.961782
0.931172
0.900561
0.869951
0.83934
0.80873
0.778119
0.747509
0.716898
0.686288
0.655677
0.625067
0.594456
0.563845
0.533235
0.502624
0.472013
0.441403
0.410792
0.380181
0.34957
0.31896
0.288349
0.257738
0.227127
0.196516
0.165905
0.135294
0.104683
0.074072
0.0434609
0.0128498
-0.0177613
-0.0483725
-0.0789837
-0.109595
-0.140206
-0.170818
-0.201429
-0.23204
-0.262652
-0.293263
-0.323875
-0.354486
-0.385098
-0.415709
-0.446321
-0.476932
-0.507543
-0.538153
-0.568754
-0.599334
-0.629797
-0.660368
0.660368
2.54919
2.54919
2.47952
2.4026
2.33424
2.27757
2.23122
2.19227
2.1578
2.12564
2.09451
2.06376
2.03313
2.00252
1.97192
1.94131
1.9107
1.88009
1.84948
1.81887
1.78826
1.75765
1.72704
1.69643
1.66582
1.63521
1.6046
1.57399
1.54338
1.51277
1.48216
1.45155
1.42094
1.39033
1.35972
1.32911
1.2985
1.26789
1.23728
1.20667
1.17605
1.14544
1.11483
1.08422
1.05361
1.023
0.992393
0.961782
0.931172
0.900561
0.869951
0.83934
0.80873
0.778119
0.747509
0.716898
0.686288
0.655677
0.625067
0.594456
0.563845
0.533235
0.502624
0.472013
0.441403
0.410792
0.380181
0.34957
0.31896
0.288349
0.257738
0.227127
0.196516
0.165905
0.135294
0.104683
0.074072
0.0434609
0.0128498
-0.0177613
-0.0483725
-0.0789837
-0.109595
-0.140206
-0.170818
-0.201429
-0.23204
-0.262652
-0.293263
-0.323875
-0.354486
-0.385098
-0.415709
-0.446321
-0.476933
-0.507544
-0.538155
-0.56876
-0.59936
-0.6299
-0.660398
0.660398
2.57634
2.57634
2.48236
2.39976
2.33091
2.27508
2.2297
2.19147
2.15743
2.12549
2.09445
2.06375
2.03313
2.00252
1.97192
1.94131
1.9107
1.88009
1.84948
1.81887
1.78826
1.75765
1.72704
1.69643
1.66582
1.63521
1.6046
1.57399
1.54338
1.51277
1.48216
1.45155
1.42094
1.39033
1.35972
1.32911
1.2985
1.26789
1.23728
1.20667
1.17605
1.14544
1.11483
1.08422
1.05361
1.023
0.992393
0.961782
0.931172
0.900561
0.869951
0.83934
0.80873
0.778119
0.747509
0.716898
0.686288
0.655677
0.625067
0.594456
0.563845
0.533235
0.502624
0.472013
0.441403
0.410792
0.380181
0.34957
0.31896
0.288349
0.257738
0.227127
0.196516
0.165905
0.135294
0.104683
0.074072
0.0434609
0.0128498
-0.0177613
-0.0483725
-0.0789837
-0.109595
-0.140206
-0.170818
-0.201429
-0.23204
-0.262652
-0.293263
-0.323875
-0.354486
-0.385098
-0.415709
-0.446321
-0.476933
-0.507544
-0.538156
-0.568764
-0.599381
-0.629978
-0.660415
0.660415
2.61456
2.61456
2.48418
2.39784
2.32892
2.27373
2.22897
2.19114
2.1573
2.12545
2.09445
2.06374
2.03313
2.00252
1.97192
1.94131
1.9107
1.88009
1.84948
1.81887
1.78826
1.75765
1.72704
1.69643
1.66582
1.63521
1.6046
1.57399
1.54338
1.51277
1.48216
1.45155
1.42094
1.39033
1.35972
1.32911
1.2985
1.26789
1.23728
1.20667
1.17605
1.14544
1.11483
1.08422
1.05361
1.023
0.992393
0.961782
0.931172
0.900561
0.869951
0.83934
0.80873
0.778119
0.747509
0.716898
0.686288
0.655677
0.625067
0.594456
0.563845
0.533235
0.502624
0.472013
0.441403
0.410792
0.380181
0.34957
0.31896
0.288349
0.257738
0.227127
0.196516
0.165905
0.135294
0.104683
0.074072
0.0434609
0.0128498
-0.0177614
-0.0483725
-0.0789837
-0.109595
-0.140206
-0.170818
-0.201429
-0.23204
-0.262652
-0.293263
-0.323875
-0.354486
-0.385098
-0.415709
-0.446321
-0.476933
-0.507544
-0.538157
-0.568766
-0.599386
-0.629981
-0.660406
0.660406
2.61456
2.61456
2.48418
2.39784
2.32892
2.27373
2.22897
2.19114
2.1573
2.12545
2.09445
2.06374
2.03313
2.00252
1.97192
1.94131
1.9107
1.88009
1.84948
1.81887
1.78826
1.75765
1.72704
1.69643
1.66582
1.63521
1.6046
1.57399
1.54338
1.51277
1.48216
1.45155
1.42094
1.39033
1.35972
1.32911
1.2985
1.26789
1.23728
1.20667
1.17605
1.14544
1.11483
1.08422
1.05361
1.023
0.992393
0.961782
0.931172
0.900561
0.869951
0.83934
0.80873
0.778119
0.747509
0.716898
0.686288
0.655677
0.625067
0.594456
0.563845
0.533235
0.502624
0.472013
0.441403
0.410792
0.380181
0.34957
0.31896
0.288349
0.257738
0.227127
0.196516
0.165905
0.135294
0.104683
0.074072
0.0434609
0.0128498
-0.0177614
-0.0483725
-0.0789837
-0.109595
-0.140206
-0.170818
-0.201429
-0.23204
-0.262652
-0.293263
-0.323875
-0.354486
-0.385098
-0.415709
-0.446321
-0.476933
-0.507544
-0.538157
-0.568766
-0.599386
-0.629981
-0.660406
0.660406
