# vtk DataFile Version 2.0
FlowField
ASCII
DATASET STRUCTURED_GRID
DIMENSIONS 102 1 12 
POINTS 1224 double
0 0 0
0.3 0 0
0.6 0 0
0.9 0 0
1.2 0 0
1.5 0 0
1.8 0 0
2.1 0 0
2.4 0 0
2.7 0 0
3 0 0
3.3 0 0
3.6 0 0
3.9 0 0
4.2 0 0
4.5 0 0
4.8 0 0
5.1 0 0
5.4 0 0
5.7 0 0
6 0 0
6.3 0 0
6.6 0 0
6.9 0 0
7.2 0 0
7.5 0 0
7.8 0 0
8.1 0 0
8.4 0 0
8.7 0 0
9 0 0
9.3 0 0
9.6 0 0
9.9 0 0
10.2 0 0
10.5 0 0
10.8 0 0
11.1 0 0
11.4 0 0
11.7 0 0
12 0 0
12.3 0 0
12.6 0 0
12.9 0 0
13.2 0 0
13.5 0 0
13.8 0 0
14.1 0 0
14.4 0 0
14.7 0 0
15 0 0
15.3 0 0
15.6 0 0
15.9 0 0
16.2 0 0
16.5 0 0
16.8 0 0
17.1 0 0
17.4 0 0
17.7 0 0
18 0 0
18.3 0 0
18.6 0 0
18.9 0 0
19.2 0 0
19.5 0 0
19.8 0 0
20.1 0 0
20.4 0 0
20.7 0 0
21 0 0
21.3 0 0
21.6 0 0
21.9 0 0
22.2 0 0
22.5 0 0
22.8 0 0
23.1 0 0
23.4 0 0
23.7 0 0
24 0 0
24.3 0 0
24.6 0 0
24.9 0 0
25.2 0 0
25.5 0 0
25.8 0 0
26.1 0 0
26.4 0 0
26.7 0 0
27 0 0
27.3 0 0
27.6 0 0
27.9 0 0
28.2 0 0
28.5 0 0
28.8 0 0
29.1 0 0
29.4 0 0
29.7 0 0
30 0 0
30.3 0 0
0 0.1 0
0.3 0.1 0
0.6 0.1 0
0.9 0.1 0
1.2 0.1 0
1.5 0.1 0
1.8 0.1 0
2.1 0.1 0
2.4 0.1 0
2.7 0.1 0
3 0.1 0
3.3 0.1 0
3.6 0.1 0
3.9 0.1 0
4.2 0.1 0
4.5 0.1 0
4.8 0.1 0
5.1 0.1 0
5.4 0.1 0
5.7 0.1 0
6 0.1 0
6.3 0.1 0
6.6 0.1 0
6.9 0.1 0
7.2 0.1 0
7.5 0.1 0
7.8 0.1 0
8.1 0.1 0
8.4 0.1 0
8.7 0.1 0
9 0.1 0
9.3 0.1 0
9.6 0.1 0
9.9 0.1 0
10.2 0.1 0
10.5 0.1 0
10.8 0.1 0
11.1 0.1 0
11.4 0.1 0
11.7 0.1 0
12 0.1 0
12.3 0.1 0
12.6 0.1 0
12.9 0.1 0
13.2 0.1 0
13.5 0.1 0
13.8 0.1 0
14.1 0.1 0
14.4 0.1 0
14.7 0.1 0
15 0.1 0
15.3 0.1 0
15.6 0.1 0
15.9 0.1 0
16.2 0.1 0
16.5 0.1 0
16.8 0.1 0
17.1 0.1 0
17.4 0.1 0
17.7 0.1 0
18 0.1 0
18.3 0.1 0
18.6 0.1 0
18.9 0.1 0
19.2 0.1 0
19.5 0.1 0
19.8 0.1 0
20.1 0.1 0
20.4 0.1 0
20.7 0.1 0
21 0.1 0
21.3 0.1 0
21.6 0.1 0
21.9 0.1 0
22.2 0.1 0
22.5 0.1 0
22.8 0.1 0
23.1 0.1 0
23.4 0.1 0
23.7 0.1 0
24 0.1 0
24.3 0.1 0
24.6 0.1 0
24.9 0.1 0
25.2 0.1 0
25.5 0.1 0
25.8 0.1 0
26.1 0.1 0
26.4 0.1 0
26.7 0.1 0
27 0.1 0
27.3 0.1 0
27.6 0.1 0
27.9 0.1 0
28.2 0.1 0
28.5 0.1 0
28.8 0.1 0
29.1 0.1 0
29.4 0.1 0
29.7 0.1 0
30 0.1 0
30.3 0.1 0
0 0.2 0
0.3 0.2 0
0.6 0.2 0
0.9 0.2 0
1.2 0.2 0
1.5 0.2 0
1.8 0.2 0
2.1 0.2 0
2.4 0.2 0
2.7 0.2 0
3 0.2 0
3.3 0.2 0
3.6 0.2 0
3.9 0.2 0
4.2 0.2 0
4.5 0.2 0
4.8 0.2 0
5.1 0.2 0
5.4 0.2 0
5.7 0.2 0
6 0.2 0
6.3 0.2 0
6.6 0.2 0
6.9 0.2 0
7.2 0.2 0
7.5 0.2 0
7.8 0.2 0
8.1 0.2 0
8.4 0.2 0
8.7 0.2 0
9 0.2 0
9.3 0.2 0
9.6 0.2 0
9.9 0.2 0
10.2 0.2 0
10.5 0.2 0
10.8 0.2 0
11.1 0.2 0
11.4 0.2 0
11.7 0.2 0
12 0.2 0
12.3 0.2 0
12.6 0.2 0
12.9 0.2 0
13.2 0.2 0
13.5 0.2 0
13.8 0.2 0
14.1 0.2 0
14.4 0.2 0
14.7 0.2 0
15 0.2 0
15.3 0.2 0
15.6 0.2 0
15.9 0.2 0
16.2 0.2 0
16.5 0.2 0
16.8 0.2 0
17.1 0.2 0
17.4 0.2 0
17.7 0.2 0
18 0.2 0
18.3 0.2 0
18.6 0.2 0
18.9 0.2 0
19.2 0.2 0
19.5 0.2 0
19.8 0.2 0
20.1 0.2 0
20.4 0.2 0
20.7 0.2 0
21 0.2 0
21.3 0.2 0
21.6 0.2 0
21.9 0.2 0
22.2 0.2 0
22.5 0.2 0
22.8 0.2 0
23.1 0.2 0
23.4 0.2 0
23.7 0.2 0
24 0.2 0
24.3 0.2 0
24.6 0.2 0
24.9 0.2 0
25.2 0.2 0
25.5 0.2 0
25.8 0.2 0
26.1 0.2 0
26.4 0.2 0
26.7 0.2 0
27 0.2 0
27.3 0.2 0
27.6 0.2 0
27.9 0.2 0
28.2 0.2 0
28.5 0.2 0
28.8 0.2 0
29.1 0.2 0
29.4 0.2 0
29.7 0.2 0
30 0.2 0
30.3 0.2 0
0 0.3 0
0.3 0.3 0
0.6 0.3 0
0.9 0.3 0
1.2 0.3 0
1.5 0.3 0
1.8 0.3 0
2.1 0.3 0
2.4 0.3 0
2.7 0.3 0
3 0.3 0
3.3 0.3 0
3.6 0.3 0
3.9 0.3 0
4.2 0.3 0
4.5 0.3 0
4.8 0.3 0
5.1 0.3 0
5.4 0.3 0
5.7 0.3 0
6 0.3 0
6.3 0.3 0
6.6 0.3 0
6.9 0.3 0
7.2 0.3 0
7.5 0.3 0
7.8 0.3 0
8.1 0.3 0
8.4 0.3 0
8.7 0.3 0
9 0.3 0
9.3 0.3 0
9.6 0.3 0
9.9 0.3 0
10.2 0.3 0
10.5 0.3 0
10.8 0.3 0
11.1 0.3 0
11.4 0.3 0
11.7 0.3 0
12 0.3 0
12.3 0.3 0
12.6 0.3 0
12.9 0.3 0
13.2 0.3 0
13.5 0.3 0
13.8 0.3 0
14.1 0.3 0
14.4 0.3 0
14.7 0.3 0
15 0.3 0
15.3 0.3 0
15.6 0.3 0
15.9 0.3 0
16.2 0.3 0
16.5 0.3 0
16.8 0.3 0
17.1 0.3 0
17.4 0.3 0
17.7 0.3 0
18 0.3 0
18.3 0.3 0
18.6 0.3 0
18.9 0.3 0
19.2 0.3 0
19.5 0.3 0
19.8 0.3 0
20.1 0.3 0
20.4 0.3 0
20.7 0.3 0
21 0.3 0
21.3 0.3 0
21.6 0.3 0
21.9 0.3 0
22.2 0.3 0
22.5 0.3 0
22.8 0.3 0
23.1 0.3 0
23.4 0.3 0
23.7 0.3 0
24 0.3 0
24.3 0.3 0
24.6 0.3 0
24.9 0.3 0
25.2 0.3 0
25.5 0.3 0
25.8 0.3 0
26.1 0.3 0
26.4 0.3 0
26.7 0.3 0
27 0.3 0
27.3 0.3 0
27.6 0.3 0
27.9 0.3 0
28.2 0.3 0
28.5 0.3 0
28.8 0.3 0
29.1 0.3 0
29.4 0.3 0
29.7 0.3 0
30 0.3 0
30.3 0.3 0
0 0.4 0
0.3 0.4 0
0.6 0.4 0
0.9 0.4 0
1.2 0.4 0
1.5 0.4 0
1.8 0.4 0
2.1 0.4 0
2.4 0.4 0
2.7 0.4 0
3 0.4 0
3.3 0.4 0
3.6 0.4 0
3.9 0.4 0
4.2 0.4 0
4.5 0.4 0
4.8 0.4 0
5.1 0.4 0
5.4 0.4 0
5.7 0.4 0
6 0.4 0
6.3 0.4 0
6.6 0.4 0
6.9 0.4 0
7.2 0.4 0
7.5 0.4 0
7.8 0.4 0
8.1 0.4 0
8.4 0.4 0
8.7 0.4 0
9 0.4 0
9.3 0.4 0
9.6 0.4 0
9.9 0.4 0
10.2 0.4 0
10.5 0.4 0
10.8 0.4 0
11.1 0.4 0
11.4 0.4 0
11.7 0.4 0
12 0.4 0
12.3 0.4 0
12.6 0.4 0
12.9 0.4 0
13.2 0.4 0
13.5 0.4 0
13.8 0.4 0
14.1 0.4 0
14.4 0.4 0
14.7 0.4 0
15 0.4 0
15.3 0.4 0
15.6 0.4 0
15.9 0.4 0
16.2 0.4 0
16.5 0.4 0
16.8 0.4 0
17.1 0.4 0
17.4 0.4 0
17.7 0.4 0
18 0.4 0
18.3 0.4 0
18.6 0.4 0
18.9 0.4 0
19.2 0.4 0
19.5 0.4 0
19.8 0.4 0
20.1 0.4 0
20.4 0.4 0
20.7 0.4 0
21 0.4 0
21.3 0.4 0
21.6 0.4 0
21.9 0.4 0
22.2 0.4 0
22.5 0.4 0
22.8 0.4 0
23.1 0.4 0
23.4 0.4 0
23.7 0.4 0
24 0.4 0
24.3 0.4 0
24.6 0.4 0
24.9 0.4 0
25.2 0.4 0
25.5 0.4 0
25.8 0.4 0
26.1 0.4 0
26.4 0.4 0
26.7 0.4 0
27 0.4 0
27.3 0.4 0
27.6 0.4 0
27.9 0.4 0
28.2 0.4 0
28.5 0.4 0
28.8 0.4 0
29.1 0.4 0
29.4 0.4 0
29.7 0.4 0
30 0.4 0
30.3 0.4 0
0 0.5 0
0.3 0.5 0
0.6 0.5 0
0.9 0.5 0
1.2 0.5 0
1.5 0.5 0
1.8 0.5 0
2.1 0.5 0
2.4 0.5 0
2.7 0.5 0
3 0.5 0
3.3 0.5 0
3.6 0.5 0
3.9 0.5 0
4.2 0.5 0
4.5 0.5 0
4.8 0.5 0
5.1 0.5 0
5.4 0.5 0
5.7 0.5 0
6 0.5 0
6.3 0.5 0
6.6 0.5 0
6.9 0.5 0
7.2 0.5 0
7.5 0.5 0
7.8 0.5 0
8.1 0.5 0
8.4 0.5 0
8.7 0.5 0
9 0.5 0
9.3 0.5 0
9.6 0.5 0
9.9 0.5 0
10.2 0.5 0
10.5 0.5 0
10.8 0.5 0
11.1 0.5 0
11.4 0.5 0
11.7 0.5 0
12 0.5 0
12.3 0.5 0
12.6 0.5 0
12.9 0.5 0
13.2 0.5 0
13.5 0.5 0
13.8 0.5 0
14.1 0.5 0
14.4 0.5 0
14.7 0.5 0
15 0.5 0
15.3 0.5 0
15.6 0.5 0
15.9 0.5 0
16.2 0.5 0
16.5 0.5 0
16.8 0.5 0
17.1 0.5 0
17.4 0.5 0
17.7 0.5 0
18 0.5 0
18.3 0.5 0
18.6 0.5 0
18.9 0.5 0
19.2 0.5 0
19.5 0.5 0
19.8 0.5 0
20.1 0.5 0
20.4 0.5 0
20.7 0.5 0
21 0.5 0
21.3 0.5 0
21.6 0.5 0
21.9 0.5 0
22.2 0.5 0
22.5 0.5 0
22.8 0.5 0
23.1 0.5 0
23.4 0.5 0
23.7 0.5 0
24 0.5 0
24.3 0.5 0
24.6 0.5 0
24.9 0.5 0
25.2 0.5 0
25.5 0.5 0
25.8 0.5 0
26.1 0.5 0
26.4 0.5 0
26.7 0.5 0
27 0.5 0
27.3 0.5 0
27.6 0.5 0
27.9 0.5 0
28.2 0.5 0
28.5 0.5 0
28.8 0.5 0
29.1 0.5 0
29.4 0.5 0
29.7 0.5 0
30 0.5 0
30.3 0.5 0
0 0.6 0
0.3 0.6 0
0.6 0.6 0
0.9 0.6 0
1.2 0.6 0
1.5 0.6 0
1.8 0.6 0
2.1 0.6 0
2.4 0.6 0
2.7 0.6 0
3 0.6 0
3.3 0.6 0
3.6 0.6 0
3.9 0.6 0
4.2 0.6 0
4.5 0.6 0
4.8 0.6 0
5.1 0.6 0
5.4 0.6 0
5.7 0.6 0
6 0.6 0
6.3 0.6 0
6.6 0.6 0
6.9 0.6 0
7.2 0.6 0
7.5 0.6 0
7.8 0.6 0
8.1 0.6 0
8.4 0.6 0
8.7 0.6 0
9 0.6 0
9.3 0.6 0
9.6 0.6 0
9.9 0.6 0
10.2 0.6 0
10.5 0.6 0
10.8 0.6 0
11.1 0.6 0
11.4 0.6 0
11.7 0.6 0
12 0.6 0
12.3 0.6 0
12.6 0.6 0
12.9 0.6 0
13.2 0.6 0
13.5 0.6 0
13.8 0.6 0
14.1 0.6 0
14.4 0.6 0
14.7 0.6 0
15 0.6 0
15.3 0.6 0
15.6 0.6 0
15.9 0.6 0
16.2 0.6 0
16.5 0.6 0
16.8 0.6 0
17.1 0.6 0
17.4 0.6 0
17.7 0.6 0
18 0.6 0
18.3 0.6 0
18.6 0.6 0
18.9 0.6 0
19.2 0.6 0
19.5 0.6 0
19.8 0.6 0
20.1 0.6 0
20.4 0.6 0
20.7 0.6 0
21 0.6 0
21.3 0.6 0
21.6 0.6 0
21.9 0.6 0
22.2 0.6 0
22.5 0.6 0
22.8 0.6 0
23.1 0.6 0
23.4 0.6 0
23.7 0.6 0
24 0.6 0
24.3 0.6 0
24.6 0.6 0
24.9 0.6 0
25.2 0.6 0
25.5 0.6 0
25.8 0.6 0
26.1 0.6 0
26.4 0.6 0
26.7 0.6 0
27 0.6 0
27.3 0.6 0
27.6 0.6 0
27.9 0.6 0
28.2 0.6 0
28.5 0.6 0
28.8 0.6 0
29.1 0.6 0
29.4 0.6 0
29.7 0.6 0
30 0.6 0
30.3 0.6 0
0 0.7 0
0.3 0.7 0
0.6 0.7 0
0.9 0.7 0
1.2 0.7 0
1.5 0.7 0
1.8 0.7 0
2.1 0.7 0
2.4 0.7 0
2.7 0.7 0
3 0.7 0
3.3 0.7 0
3.6 0.7 0
3.9 0.7 0
4.2 0.7 0
4.5 0.7 0
4.8 0.7 0
5.1 0.7 0
5.4 0.7 0
5.7 0.7 0
6 0.7 0
6.3 0.7 0
6.6 0.7 0
6.9 0.7 0
7.2 0.7 0
7.5 0.7 0
7.8 0.7 0
8.1 0.7 0
8.4 0.7 0
8.7 0.7 0
9 0.7 0
9.3 0.7 0
9.6 0.7 0
9.9 0.7 0
10.2 0.7 0
10.5 0.7 0
10.8 0.7 0
11.1 0.7 0
11.4 0.7 0
11.7 0.7 0
12 0.7 0
12.3 0.7 0
12.6 0.7 0
12.9 0.7 0
13.2 0.7 0
13.5 0.7 0
13.8 0.7 0
14.1 0.7 0
14.4 0.7 0
14.7 0.7 0
15 0.7 0
15.3 0.7 0
15.6 0.7 0
15.9 0.7 0
16.2 0.7 0
16.5 0.7 0
16.8 0.7 0
17.1 0.7 0
17.4 0.7 0
17.7 0.7 0
18 0.7 0
18.3 0.7 0
18.6 0.7 0
18.9 0.7 0
19.2 0.7 0
19.5 0.7 0
19.8 0.7 0
20.1 0.7 0
20.4 0.7 0
20.7 0.7 0
21 0.7 0
21.3 0.7 0
21.6 0.7 0
21.9 0.7 0
22.2 0.7 0
22.5 0.7 0
22.8 0.7 0
23.1 0.7 0
23.4 0.7 0
23.7 0.7 0
24 0.7 0
24.3 0.7 0
24.6 0.7 0
24.9 0.7 0
25.2 0.7 0
25.5 0.7 0
25.8 0.7 0
26.1 0.7 0
26.4 0.7 0
26.7 0.7 0
27 0.7 0
27.3 0.7 0
27.6 0.7 0
27.9 0.7 0
28.2 0.7 0
28.5 0.7 0
28.8 0.7 0
29.1 0.7 0
29.4 0.7 0
29.7 0.7 0
30 0.7 0
30.3 0.7 0
0 0.8 0
0.3 0.8 0
0.6 0.8 0
0.9 0.8 0
1.2 0.8 0
1.5 0.8 0
1.8 0.8 0
2.1 0.8 0
2.4 0.8 0
2.7 0.8 0
3 0.8 0
3.3 0.8 0
3.6 0.8 0
3.9 0.8 0
4.2 0.8 0
4.5 0.8 0
4.8 0.8 0
5.1 0.8 0
5.4 0.8 0
5.7 0.8 0
6 0.8 0
6.3 0.8 0
6.6 0.8 0
6.9 0.8 0
7.2 0.8 0
7.5 0.8 0
7.8 0.8 0
8.1 0.8 0
8.4 0.8 0
8.7 0.8 0
9 0.8 0
9.3 0.8 0
9.6 0.8 0
9.9 0.8 0
10.2 0.8 0
10.5 0.8 0
10.8 0.8 0
11.1 0.8 0
11.4 0.8 0
11.7 0.8 0
12 0.8 0
12.3 0.8 0
12.6 0.8 0
12.9 0.8 0
13.2 0.8 0
13.5 0.8 0
13.8 0.8 0
14.1 0.8 0
14.4 0.8 0
14.7 0.8 0
15 0.8 0
15.3 0.8 0
15.6 0.8 0
15.9 0.8 0
16.2 0.8 0
16.5 0.8 0
16.8 0.8 0
17.1 0.8 0
17.4 0.8 0
17.7 0.8 0
18 0.8 0
18.3 0.8 0
18.6 0.8 0
18.9 0.8 0
19.2 0.8 0
19.5 0.8 0
19.8 0.8 0
20.1 0.8 0
20.4 0.8 0
20.7 0.8 0
21 0.8 0
21.3 0.8 0
21.6 0.8 0
21.9 0.8 0
22.2 0.8 0
22.5 0.8 0
22.8 0.8 0
23.1 0.8 0
23.4 0.8 0
23.7 0.8 0
24 0.8 0
24.3 0.8 0
24.6 0.8 0
24.9 0.8 0
25.2 0.8 0
25.5 0.8 0
25.8 0.8 0
26.1 0.8 0
26.4 0.8 0
26.7 0.8 0
27 0.8 0
27.3 0.8 0
27.6 0.8 0
27.9 0.8 0
28.2 0.8 0
28.5 0.8 0
28.8 0.8 0
29.1 0.8 0
29.4 0.8 0
29.7 0.8 0
30 0.8 0
30.3 0.8 0
0 0.9 0
0.3 0.9 0
0.6 0.9 0
0.9 0.9 0
1.2 0.9 0
1.5 0.9 0
1.8 0.9 0
2.1 0.9 0
2.4 0.9 0
2.7 0.9 0
3 0.9 0
3.3 0.9 0
3.6 0.9 0
3.9 0.9 0
4.2 0.9 0
4.5 0.9 0
4.8 0.9 0
5.1 0.9 0
5.4 0.9 0
5.7 0.9 0
6 0.9 0
6.3 0.9 0
6.6 0.9 0
6.9 0.9 0
7.2 0.9 0
7.5 0.9 0
7.8 0.9 0
8.1 0.9 0
8.4 0.9 0
8.7 0.9 0
9 0.9 0
9.3 0.9 0
9.6 0.9 0
9.9 0.9 0
10.2 0.9 0
10.5 0.9 0
10.8 0.9 0
11.1 0.9 0
11.4 0.9 0
11.7 0.9 0
12 0.9 0
12.3 0.9 0
12.6 0.9 0
12.9 0.9 0
13.2 0.9 0
13.5 0.9 0
13.8 0.9 0
14.1 0.9 0
14.4 0.9 0
14.7 0.9 0
15 0.9 0
15.3 0.9 0
15.6 0.9 0
15.9 0.9 0
16.2 0.9 0
16.5 0.9 0
16.8 0.9 0
17.1 0.9 0
17.4 0.9 0
17.7 0.9 0
18 0.9 0
18.3 0.9 0
18.6 0.9 0
18.9 0.9 0
19.2 0.9 0
19.5 0.9 0
19.8 0.9 0
20.1 0.9 0
20.4 0.9 0
20.7 0.9 0
21 0.9 0
21.3 0.9 0
21.6 0.9 0
21.9 0.9 0
22.2 0.9 0
22.5 0.9 0
22.8 0.9 0
23.1 0.9 0
23.4 0.9 0
23.7 0.9 0
24 0.9 0
24.3 0.9 0
24.6 0.9 0
24.9 0.9 0
25.2 0.9 0
25.5 0.9 0
25.8 0.9 0
26.1 0.9 0
26.4 0.9 0
26.7 0.9 0
27 0.9 0
27.3 0.9 0
27.6 0.9 0
27.9 0.9 0
28.2 0.9 0
28.5 0.9 0
28.8 0.9 0
29.1 0.9 0
29.4 0.9 0
29.7 0.9 0
30 0.9 0
30.3 0.9 0
0 1 0
0.3 1 0
0.6 1 0
0.9 1 0
1.2 1 0
1.5 1 0
1.8 1 0
2.1 1 0
2.4 1 0
2.7 1 0
3 1 0
3.3 1 0
3.6 1 0
3.9 1 0
4.2 1 0
4.5 1 0
4.8 1 0
5.1 1 0
5.4 1 0
5.7 1 0
6 1 0
6.3 1 0
6.6 1 0
6.9 1 0
7.2 1 0
7.5 1 0
7.8 1 0
8.1 1 0
8.4 1 0
8.7 1 0
9 1 0
9.3 1 0
9.6 1 0
9.9 1 0
10.2 1 0
10.5 1 0
10.8 1 0
11.1 1 0
11.4 1 0
11.7 1 0
12 1 0
12.3 1 0
12.6 1 0
12.9 1 0
13.2 1 0
13.5 1 0
13.8 1 0
14.1 1 0
14.4 1 0
14.7 1 0
15 1 0
15.3 1 0
15.6 1 0
15.9 1 0
16.2 1 0
16.5 1 0
16.8 1 0
17.1 1 0
17.4 1 0
17.7 1 0
18 1 0
18.3 1 0
18.6 1 0
18.9 1 0
19.2 1 0
19.5 1 0
19.8 1 0
20.1 1 0
20.4 1 0
20.7 1 0
21 1 0
21.3 1 0
21.6 1 0
21.9 1 0
22.2 1 0
22.5 1 0
22.8 1 0
23.1 1 0
23.4 1 0
23.7 1 0
24 1 0
24.3 1 0
24.6 1 0
24.9 1 0
25.2 1 0
25.5 1 0
25.8 1 0
26.1 1 0
26.4 1 0
26.7 1 0
27 1 0
27.3 1 0
27.6 1 0
27.9 1 0
28.2 1 0
28.5 1 0
28.8 1 0
29.1 1 0
29.4 1 0
29.7 1 0
30 1 0
30.3 1 0
0 1.1 0
0.3 1.1 0
0.6 1.1 0
0.9 1.1 0
1.2 1.1 0
1.5 1.1 0
1.8 1.1 0
2.1 1.1 0
2.4 1.1 0
2.7 1.1 0
3 1.1 0
3.3 1.1 0
3.6 1.1 0
3.9 1.1 0
4.2 1.1 0
4.5 1.1 0
4.8 1.1 0
5.1 1.1 0
5.4 1.1 0
5.7 1.1 0
6 1.1 0
6.3 1.1 0
6.6 1.1 0
6.9 1.1 0
7.2 1.1 0
7.5 1.1 0
7.8 1.1 0
8.1 1.1 0
8.4 1.1 0
8.7 1.1 0
9 1.1 0
9.3 1.1 0
9.6 1.1 0
9.9 1.1 0
10.2 1.1 0
10.5 1.1 0
10.8 1.1 0
11.1 1.1 0
11.4 1.1 0
11.7 1.1 0
12 1.1 0
12.3 1.1 0
12.6 1.1 0
12.9 1.1 0
13.2 1.1 0
13.5 1.1 0
13.8 1.1 0
14.1 1.1 0
14.4 1.1 0
14.7 1.1 0
15 1.1 0
15.3 1.1 0
15.6 1.1 0
15.9 1.1 0
16.2 1.1 0
16.5 1.1 0
16.8 1.1 0
17.1 1.1 0
17.4 1.1 0
17.7 1.1 0
18 1.1 0
18.3 1.1 0
18.6 1.1 0
18.9 1.1 0
19.2 1.1 0
19.5 1.1 0
19.8 1.1 0
20.1 1.1 0
20.4 1.1 0
20.7 1.1 0
21 1.1 0
21.3 1.1 0
21.6 1.1 0
21.9 1.1 0
22.2 1.1 0
22.5 1.1 0
22.8 1.1 0
23.1 1.1 0
23.4 1.1 0
23.7 1.1 0
24 1.1 0
24.3 1.1 0
24.6 1.1 0
24.9 1.1 0
25.2 1.1 0
25.5 1.1 0
25.8 1.1 0
26.1 1.1 0
26.4 1.1 0
26.7 1.1 0
27 1.1 0
27.3 1.1 0
27.6 1.1 0
27.9 1.1 0
28.2 1.1 0
28.5 1.1 0
28.8 1.1 0
29.1 1.1 0
29.4 1.1 0
29.7 1.1 0
30 1.1 0
30.3 1.1 0

POINT_DATA 1224

SCALARS p double
LOOKUP_TABLE default
2.28416
2.28416
2.15379
2.0675
1.99832
1.94178
1.8942
1.8525
1.81461
1.77932
1.74591
1.71395
1.68316
1.65333
1.62433
1.59602
1.56831
1.54112
1.51438
1.48804
1.46203
1.43632
1.41088
1.38566
1.36065
1.33582
1.31114
1.2866
1.26218
1.23786
1.21364
1.1895
1.16543
1.14143
1.11749
1.09359
1.06973
1.04592
1.02214
0.998389
0.974665
0.950964
0.927283
0.90362
0.879973
0.85634
0.83272
0.80911
0.78551
0.761918
0.738334
0.714756
0.691184
0.667617
0.644054
0.620496
0.596941
0.573389
0.54984
0.526293
0.502748
0.479205
0.455664
0.432125
0.408586
0.385049
0.361513
0.337978
0.314443
0.290909
0.267376
0.243843
0.220311
0.196779
0.173247
0.149715
0.126184
0.102652
0.0791213
0.0555902
0.0320592
0.00852826
-0.0150027
-0.0385336
-0.0620644
-0.0855953
-0.109126
-0.132657
-0.156188
-0.179719
-0.203249
-0.22678
-0.250311
-0.273842
-0.297373
-0.320904
-0.344434
-0.367965
-0.391496
-0.415027
-0.438558
0.438558
2.28416
2.28416
2.15379
2.0675
1.99832
1.94178
1.8942
1.8525
1.81461
1.77932
1.74591
1.71395
1.68316
1.65333
1.62433
1.59602
1.56831
1.54112
1.51438
1.48804
1.46203
1.43632
1.41088
1.38566
1.36065
1.33582
1.31114
1.2866
1.26218
1.23786
1.21364
1.1895
1.16543
1.14143
1.11749
1.09359
1.06973
1.04592
1.02214
0.998389
0.974665
0.950964
0.927283
0.90362
0.879973
0.85634
0.83272
0.80911
0.78551
0.761918
0.738334
0.714756
0.691184
0.667617
0.644054
0.620496
0.596941
0.573389
0.54984
0.526293
0.502748
0.479205
0.455664
0.432125
0.408586
0.385049
0.361513
0.337978
0.314443
0.290909
0.267376
0.243843
0.220311
0.196779
0.173247
0.149715
0.126184
0.102652
0.0791213
0.0555902
0.0320592
0.00852826
-0.0150027
-0.0385336
-0.0620644
-0.0855953
-0.109126
-0.132657
-0.156188
-0.179719
-0.203249
-0.22678
-0.250311
-0.273842
-0.297373
-0.320904
-0.344434
-0.367965
-0.391496
-0.415027
-0.438558
0.438558
2.24593
2.24593
2.15197
2.06944
2.00038
1.94331
1.89522
1.85316
1.81505
1.77963
1.74614
1.71413
1.6833
1.65345
1.62442
1.5961
1.56838
1.54118
1.51443
1.48808
1.46207
1.43636
1.41091
1.38569
1.36067
1.33584
1.31116
1.28661
1.26219
1.23787
1.21365
1.18951
1.16544
1.14144
1.11749
1.09359
1.06974
1.04592
1.02214
0.998392
0.974667
0.950966
0.927285
0.903622
0.879975
0.856342
0.832721
0.809111
0.785511
0.761919
0.738334
0.714756
0.691184
0.667617
0.644055
0.620496
0.596941
0.573389
0.54984
0.526293
0.502748
0.479206
0.455664
0.432125
0.408586
0.385049
0.361513
0.337978
0.314443
0.290909
0.267376
0.243843
0.220311
0.196779
0.173247
0.149715
0.126184
0.102652
0.0791213
0.0555902
0.0320592
0.00852826
-0.0150027
-0.0385336
-0.0620644
-0.0855953
-0.109126
-0.132657
-0.156188
-0.179719
-0.203249
-0.22678
-0.250311
-0.273842
-0.297373
-0.320904
-0.344434
-0.367965
-0.391496
-0.415027
-0.438558
0.438558
2.21878
2.21878
2.14913
2.07223
2.00364
1.94577
1.89681
1.85413
1.81565
1.78001
1.7464
1.71432
1.68345
1.65357
1.62452
1.59618
1.56844
1.54123
1.51448
1.48812
1.4621
1.43638
1.41093
1.38571
1.36069
1.33585
1.31117
1.28662
1.2622
1.23788
1.21366
1.18952
1.16545
1.14144
1.1175
1.0936
1.06974
1.04593
1.02215
0.998395
0.97467
0.950968
0.927287
0.903623
0.879976
0.856343
0.832722
0.809112
0.785511
0.761919
0.738335
0.714757
0.691185
0.667618
0.644055
0.620497
0.596941
0.573389
0.54984
0.526293
0.502748
0.479206
0.455664
0.432125
0.408586
0.385049
0.361513
0.337978
0.314443
0.290909
0.267376
0.243843
0.220311
0.196779
0.173247
0.149715
0.126184
0.102652
0.0791213
0.0555902
0.0320592
0.00852826
-0.0150027
-0.0385336
-0.0620644
-0.0855953
-0.109126
-0.132657
-0.156188
-0.179719
-0.203249
-0.22678
-0.250311
-0.273842
-0.297373
-0.320904
-0.344434
-0.367965
-0.391496
-0.415027
-0.438558
0.438558
2.20239
2.20239
2.14673
2.07445
2.00651
1.94807
1.89839
1.85515
1.81631
1.78045
1.74671
1.71455
1.68362
1.6537
1.62463
1.59627
1.56852
1.5413
1.51453
1.48816
1.46214
1.43642
1.41096
1.38574
1.36071
1.33587
1.31119
1.28664
1.26221
1.23789
1.21367
1.18952
1.16545
1.14145
1.1175
1.0936
1.06975
1.04593
1.02215
0.998398
0.974672
0.95097
0.927288
0.903625
0.879978
0.856344
0.832723
0.809113
0.785512
0.76192
0.738336
0.714758
0.691185
0.667618
0.644056
0.620497
0.596942
0.57339
0.54984
0.526293
0.502749
0.479206
0.455665
0.432125
0.408587
0.385049
0.361513
0.337978
0.314443
0.290909
0.267376
0.243843
0.220311
0.196779
0.173247
0.149715
0.126184
0.102652
0.0791213
0.0555902
0.0320592
0.00852826
-0.0150027
-0.0385336
-0.0620644
-0.0855953
-0.109126
-0.132657
-0.156188
-0.179719
-0.203249
-0.22678
-0.250311
-0.273842
-0.297373
-0.320904
-0.344434
-0.367965
-0.391496
-0.415027
-0.438558
0.438558
2.19473
2.19473
2.14543
2.07562
2.0081
1.94939
1.89932
1.85578
1.81673
1.78074
1.74692
1.71471
1.68375
1.65381
1.62471
1.59634
1.56858
1.54135
1.51457
1.4882
1.46217
1.43644
1.41098
1.38575
1.36073
1.33589
1.3112
1.28665
1.26222
1.2379
1.21367
1.18953
1.16546
1.14145
1.11751
1.09361
1.06975
1.04593
1.02215
0.9984
0.974674
0.950972
0.92729
0.903626
0.879979
0.856345
0.832724
0.809114
0.785513
0.761921
0.738336
0.714758
0.691186
0.667619
0.644056
0.620497
0.596942
0.57339
0.549841
0.526294
0.502749
0.479206
0.455665
0.432125
0.408587
0.385049
0.361513
0.337978
0.314443
0.290909
0.267376
0.243843
0.220311
0.196779
0.173247
0.149715
0.126184
0.102652
0.0791213
0.0555902
0.0320592
0.00852826
-0.0150027
-0.0385336
-0.0620644
-0.0855953
-0.109126
-0.132657
-0.156188
-0.179719
-0.203249
-0.22678
-0.250311
-0.273842
-0.297373
-0.320904
-0.344434
-0.367965
-0.391496
-0.415027
-0.438558
0.438558
2.19473
2.19473
2.14543
2.07562
2.0081
1.94939
1.89932
1.85578
1.81673
1.78074
1.74692
1.71471
1.68375
1.65381
1.62471
1.59634
1.56858
1.54135
1.51457
1.4882
1.46217
1.43644
1.41098
1.38575
1.36073
1.33589
1.3112
1.28665
1.26222
1.2379
1.21367
1.18953
1.16546
1.14145
1.11751
1.09361
1.06975
1.04593
1.02215
0.9984
0.974674
0.950972
0.92729
0.903626
0.879979
0.856345
0.832724
0.809114
0.785513
0.761921
0.738336
0.714758
0.691186
0.667619
0.644056
0.620497
0.596942
0.57339
0.549841
0.526294
0.502749
0.479206
0.455665
0.432125
0.408587
0.385049
0.361513
0.337978
0.314443
0.290909
0.267376
0.243843
0.220311
0.196779
0.173247
0.149715
0.126184
0.102652
0.0791213
0.0555902
0.0320592
0.00852826
-0.0150027
-0.0385336
-0.0620644
-0.0855953
-0.109126
-0.132657
-0.156188
-0.179719
-0.203249
-0.22678
-0.250311
-0.273842
-0.297373
-0.320904
-0.344434
-0.367965
-0.391496
-0.415027
-0.438558
0.438558
2.20239
2.20239
2.14673
2.07445
2.00651
1.94807
1.89839
1.85515
1.81631
1.78045
1.74671
1.71455
1.68362
1.6537
1.62463
1.59627
1.56852
1.5413
1.51453
1.48816
1.46214
1.43642
1.41096
1.38574
1.36071
1.33587
1.31119
1.28664
1.26221
1.23789
1.21367
1.18952
1.16545
1.14145
1.1175
1.0936
1.06975
1.04593
1.02215
0.998398
0.974672
0.95097
0.927289
0.903625
0.879978
0.856344
0.832723
0.809113
0.785512
0.76192
0.738336
0.714758
0.691185
0.667618
0.644056
0.620497
0.596942
0.57339
0.54984
0.526293
0.502749
0.479206
0.455665
0.432125
0.408587
0.385049
0.361513
0.337978
0.314443
0.290909
0.267376
0.243843
0.220311
0.196779
0.173247
0.149715
0.126184
0.102652
0.0791213
0.0555902
0.0320592
0.00852826
-0.0150027
-0.0385336
-0.0620644
-0.0855953
-0.109126
-0.132657
-0.156188
-0.179719
-0.203249
-0.22678
-0.250311
-0.273842
-0.297373
-0.320904
-0.344434
-0.367965
-0.391496
-0.415027
-0.438558
0.438558
2.21878
2.21878
2.14913
2.07223
2.00364
1.94577
1.89681
1.85413
1.81565
1.78001
1.7464
1.71432
1.68345
1.65357
1.62452
1.59618
1.56844
1.54123
1.51448
1.48812
1.4621
1.43638
1.41093
1.38571
1.36069
1.33585
1.31117
1.28662
1.2622
1.23788
1.21366
1.18952
1.16545
1.14144
1.1175
1.0936
1.06974
1.04593
1.02215
0.998395
0.97467
0.950968
0.927287
0.903623
0.879976
0.856343
0.832722
0.809112
0.785511
0.761919
0.738335
0.714757
0.691185
0.667618
0.644055
0.620497
0.596941
0.573389
0.54984
0.526293
0.502748
0.479206
0.455664
0.432125
0.408586
0.385049
0.361513
0.337978
0.314443
0.290909
0.267376
0.243843
0.220311
0.196779
0.173247
0.149715
0.126184
0.102652
0.0791213
0.0555902
0.0320592
0.00852826
-0.0150027
-0.0385336
-0.0620644
-0.0855953
-0.109126
-0.132657
-0.156188
-0.179719
-0.203249
-0.22678
-0.250311
-0.273842
-0.297373
-0.320904
-0.344434
-0.367965
-0.391496
-0.415027
-0.438558
0.438558
2.24593
2.24593
2.15197
2.06943
2.00038
1.94331
1.89522
1.85316
1.81505
1.77963
1.74614
1.71413
1.6833
1.65345
1.62443
1.5961
1.56838
1.54118
1.51443
1.48808
1.46207
1.43636
1.41091
1.38569
1.36067
1.33584
1.31116
1.28661
1.26219
1.23787
1.21365
1.18951
1.16544
1.14144
1.11749
1.09359
1.06974
1.04592
1.02214
0.998392
0.974667
0.950966
0.927285
0.903622
0.879975
0.856342
0.832721
0.809111
0.785511
0.761919
0.738334
0.714756
0.691184
0.667617
0.644055
0.620496
0.596941
0.573389
0.54984
0.526293
0.502748
0.479205
0.455664
0.432125
0.408586
0.385049
0.361513
0.337978
0.314443
0.290909
0.267376
0.243843
0.220311
0.196779
0.173247
0.149715
0.126184
0.102652
0.0791213
0.0555902
0.0320592
0.00852826
-0.0150027
-0.0385336
-0.0620644
-0.0855953
-0.109126
-0.132657
-0.156188
-0.179719
-0.203249
-0.22678
-0.250311
-0.273842
-0.297373
-0.320904
-0.344434
-0.367965
-0.391496
-0.415027
-0.438558
0.438558
2.28416
2.28416
2.15379
2.0675
1.99832
1.94178
1.8942
1.8525
1.81461
1.77932
1.74591
1.71395
1.68316
1.65334
1.62433
1.59602
1.56831
1.54112
1.51438
1.48803
1.46203
1.43632
1.41088
1.38567
1.36065
1.33582
1.31114
1.2866
1.26218
1.23786
1.21364
1.1895
1.16543
1.14143
1.11748
1.09359
1.06974
1.04592
1.02214
0.998389
0.974665
0.950964
0.927283
0.90362
0.879973
0.85634
0.83272
0.80911
0.78551
0.761918
0.738334
0.714756
0.691184
0.667617
0.644054
0.620496
0.596941
0.573389
0.54984
0.526293
0.502748
0.479205
0.455664
0.432125
0.408586
0.385049
0.361513
0.337978
0.314443
0.290909
0.267376
0.243843
0.220311
0.196779
0.173247
0.149715
0.126184
0.102652
0.0791213
0.0555902
0.0320592
0.00852826
-0.0150027
-0.0385336
-0.0620644
-0.0855953
-0.109126
-0.132657
-0.156188
-0.179719
-0.203249
-0.22678
-0.250311
-0.273842
-0.297373
-0.320904
-0.344434
-0.367965
-0.391496
-0.415027
-0.438558
0.438558
2.28416
2.28416
2.15379
2.0675
1.99832
1.94178
1.8942
1.8525
1.81461
1.77932
1.74591
1.71395
1.68316
1.65334
1.62433
1.59602
1.56831
1.54112
1.51438
1.48803
1.46203
1.43632
1.41088
1.38567
1.36065
1.33582
1.31114
1.2866
1.26218
1.23786
1.21364
1.1895
1.16543
1.14143
1.11748
1.09359
1.06974
1.04592
1.02214
0.998389
0.974665
0.950964
0.927283
0.90362
0.879973
0.85634
0.83272
0.80911
0.78551
0.761918
0.738334
0.714756
0.691184
0.667617
0.644054
0.620496
0.596941
0.573389
0.54984
0.526293
0.502748
0.479205
0.455664
0.432125
0.408586
0.385049
0.361513
0.337978
0.314443
0.290909
0.267376
0.243843
0.220311
0.196779
0.173247
0.149715
0.126184
0.102652
0.0791213
0.0555902
0.0320592
0.00852826
-0.0150027
-0.0385336
-0.0620644
-0.0855953
-0.109126
-0.132657
-0.156188
-0.179719
-0.203249
-0.22678
-0.250311
-0.273842
-0.297373
-0.320904
-0.344434
-0.367965
-0.391496
-0.415027
-0.438558
0.438558
