# vtk DataFile Version 2.0
FlowField
ASCII
DATASET STRUCTURED_GRID
DIMENSIONS 102 1 12 
POINTS 1224 double
0 0 0
0.4 0 0
0.8 0 0
1.2 0 0
1.6 0 0
2 0 0
2.4 0 0
2.8 0 0
3.2 0 0
3.6 0 0
4 0 0
4.4 0 0
4.8 0 0
5.2 0 0
5.6 0 0
6 0 0
6.4 0 0
6.8 0 0
7.2 0 0
7.6 0 0
8 0 0
8.4 0 0
8.8 0 0
9.2 0 0
9.6 0 0
10 0 0
10.4 0 0
10.8 0 0
11.2 0 0
11.6 0 0
12 0 0
12.4 0 0
12.8 0 0
13.2 0 0
13.6 0 0
14 0 0
14.4 0 0
14.8 0 0
15.2 0 0
15.6 0 0
16 0 0
16.4 0 0
16.8 0 0
17.2 0 0
17.6 0 0
18 0 0
18.4 0 0
18.8 0 0
19.2 0 0
19.6 0 0
20 0 0
20.4 0 0
20.8 0 0
21.2 0 0
21.6 0 0
22 0 0
22.4 0 0
22.8 0 0
23.2 0 0
23.6 0 0
24 0 0
24.4 0 0
24.8 0 0
25.2 0 0
25.6 0 0
26 0 0
26.4 0 0
26.8 0 0
27.2 0 0
27.6 0 0
28 0 0
28.4 0 0
28.8 0 0
29.2 0 0
29.6 0 0
30 0 0
30.4 0 0
30.8 0 0
31.2 0 0
31.6 0 0
32 0 0
32.4 0 0
32.8 0 0
33.2 0 0
33.6 0 0
34 0 0
34.4 0 0
34.8 0 0
35.2 0 0
35.6 0 0
36 0 0
36.4 0 0
36.8 0 0
37.2 0 0
37.6 0 0
38 0 0
38.4 0 0
38.8 0 0
39.2 0 0
39.6 0 0
40 0 0
40.4 0 0
0 0.1 0
0.4 0.1 0
0.8 0.1 0
1.2 0.1 0
1.6 0.1 0
2 0.1 0
2.4 0.1 0
2.8 0.1 0
3.2 0.1 0
3.6 0.1 0
4 0.1 0
4.4 0.1 0
4.8 0.1 0
5.2 0.1 0
5.6 0.1 0
6 0.1 0
6.4 0.1 0
6.8 0.1 0
7.2 0.1 0
7.6 0.1 0
8 0.1 0
8.4 0.1 0
8.8 0.1 0
9.2 0.1 0
9.6 0.1 0
10 0.1 0
10.4 0.1 0
10.8 0.1 0
11.2 0.1 0
11.6 0.1 0
12 0.1 0
12.4 0.1 0
12.8 0.1 0
13.2 0.1 0
13.6 0.1 0
14 0.1 0
14.4 0.1 0
14.8 0.1 0
15.2 0.1 0
15.6 0.1 0
16 0.1 0
16.4 0.1 0
16.8 0.1 0
17.2 0.1 0
17.6 0.1 0
18 0.1 0
18.4 0.1 0
18.8 0.1 0
19.2 0.1 0
19.6 0.1 0
20 0.1 0
20.4 0.1 0
20.8 0.1 0
21.2 0.1 0
21.6 0.1 0
22 0.1 0
22.4 0.1 0
22.8 0.1 0
23.2 0.1 0
23.6 0.1 0
24 0.1 0
24.4 0.1 0
24.8 0.1 0
25.2 0.1 0
25.6 0.1 0
26 0.1 0
26.4 0.1 0
26.8 0.1 0
27.2 0.1 0
27.6 0.1 0
28 0.1 0
28.4 0.1 0
28.8 0.1 0
29.2 0.1 0
29.6 0.1 0
30 0.1 0
30.4 0.1 0
30.8 0.1 0
31.2 0.1 0
31.6 0.1 0
32 0.1 0
32.4 0.1 0
32.8 0.1 0
33.2 0.1 0
33.6 0.1 0
34 0.1 0
34.4 0.1 0
34.8 0.1 0
35.2 0.1 0
35.6 0.1 0
36 0.1 0
36.4 0.1 0
36.8 0.1 0
37.2 0.1 0
37.6 0.1 0
38 0.1 0
38.4 0.1 0
38.8 0.1 0
39.2 0.1 0
39.6 0.1 0
40 0.1 0
40.4 0.1 0
0 0.2 0
0.4 0.2 0
0.8 0.2 0
1.2 0.2 0
1.6 0.2 0
2 0.2 0
2.4 0.2 0
2.8 0.2 0
3.2 0.2 0
3.6 0.2 0
4 0.2 0
4.4 0.2 0
4.8 0.2 0
5.2 0.2 0
5.6 0.2 0
6 0.2 0
6.4 0.2 0
6.8 0.2 0
7.2 0.2 0
7.6 0.2 0
8 0.2 0
8.4 0.2 0
8.8 0.2 0
9.2 0.2 0
9.6 0.2 0
10 0.2 0
10.4 0.2 0
10.8 0.2 0
11.2 0.2 0
11.6 0.2 0
12 0.2 0
12.4 0.2 0
12.8 0.2 0
13.2 0.2 0
13.6 0.2 0
14 0.2 0
14.4 0.2 0
14.8 0.2 0
15.2 0.2 0
15.6 0.2 0
16 0.2 0
16.4 0.2 0
16.8 0.2 0
17.2 0.2 0
17.6 0.2 0
18 0.2 0
18.4 0.2 0
18.8 0.2 0
19.2 0.2 0
19.6 0.2 0
20 0.2 0
20.4 0.2 0
20.8 0.2 0
21.2 0.2 0
21.6 0.2 0
22 0.2 0
22.4 0.2 0
22.8 0.2 0
23.2 0.2 0
23.6 0.2 0
24 0.2 0
24.4 0.2 0
24.8 0.2 0
25.2 0.2 0
25.6 0.2 0
26 0.2 0
26.4 0.2 0
26.8 0.2 0
27.2 0.2 0
27.6 0.2 0
28 0.2 0
28.4 0.2 0
28.8 0.2 0
29.2 0.2 0
29.6 0.2 0
30 0.2 0
30.4 0.2 0
30.8 0.2 0
31.2 0.2 0
31.6 0.2 0
32 0.2 0
32.4 0.2 0
32.8 0.2 0
33.2 0.2 0
33.6 0.2 0
34 0.2 0
34.4 0.2 0
34.8 0.2 0
35.2 0.2 0
35.6 0.2 0
36 0.2 0
36.4 0.2 0
36.8 0.2 0
37.2 0.2 0
37.6 0.2 0
38 0.2 0
38.4 0.2 0
38.8 0.2 0
39.2 0.2 0
39.6 0.2 0
40 0.2 0
40.4 0.2 0
0 0.3 0
0.4 0.3 0
0.8 0.3 0
1.2 0.3 0
1.6 0.3 0
2 0.3 0
2.4 0.3 0
2.8 0.3 0
3.2 0.3 0
3.6 0.3 0
4 0.3 0
4.4 0.3 0
4.8 0.3 0
5.2 0.3 0
5.6 0.3 0
6 0.3 0
6.4 0.3 0
6.8 0.3 0
7.2 0.3 0
7.6 0.3 0
8 0.3 0
8.4 0.3 0
8.8 0.3 0
9.2 0.3 0
9.6 0.3 0
10 0.3 0
10.4 0.3 0
10.8 0.3 0
11.2 0.3 0
11.6 0.3 0
12 0.3 0
12.4 0.3 0
12.8 0.3 0
13.2 0.3 0
13.6 0.3 0
14 0.3 0
14.4 0.3 0
14.8 0.3 0
15.2 0.3 0
15.6 0.3 0
16 0.3 0
16.4 0.3 0
16.8 0.3 0
17.2 0.3 0
17.6 0.3 0
18 0.3 0
18.4 0.3 0
18.8 0.3 0
19.2 0.3 0
19.6 0.3 0
20 0.3 0
20.4 0.3 0
20.8 0.3 0
21.2 0.3 0
21.6 0.3 0
22 0.3 0
22.4 0.3 0
22.8 0.3 0
23.2 0.3 0
23.6 0.3 0
24 0.3 0
24.4 0.3 0
24.8 0.3 0
25.2 0.3 0
25.6 0.3 0
26 0.3 0
26.4 0.3 0
26.8 0.3 0
27.2 0.3 0
27.6 0.3 0
28 0.3 0
28.4 0.3 0
28.8 0.3 0
29.2 0.3 0
29.6 0.3 0
30 0.3 0
30.4 0.3 0
30.8 0.3 0
31.2 0.3 0
31.6 0.3 0
32 0.3 0
32.4 0.3 0
32.8 0.3 0
33.2 0.3 0
33.6 0.3 0
34 0.3 0
34.4 0.3 0
34.8 0.3 0
35.2 0.3 0
35.6 0.3 0
36 0.3 0
36.4 0.3 0
36.8 0.3 0
37.2 0.3 0
37.6 0.3 0
38 0.3 0
38.4 0.3 0
38.8 0.3 0
39.2 0.3 0
39.6 0.3 0
40 0.3 0
40.4 0.3 0
0 0.4 0
0.4 0.4 0
0.8 0.4 0
1.2 0.4 0
1.6 0.4 0
2 0.4 0
2.4 0.4 0
2.8 0.4 0
3.2 0.4 0
3.6 0.4 0
4 0.4 0
4.4 0.4 0
4.8 0.4 0
5.2 0.4 0
5.6 0.4 0
6 0.4 0
6.4 0.4 0
6.8 0.4 0
7.2 0.4 0
7.6 0.4 0
8 0.4 0
8.4 0.4 0
8.8 0.4 0
9.2 0.4 0
9.6 0.4 0
10 0.4 0
10.4 0.4 0
10.8 0.4 0
11.2 0.4 0
11.6 0.4 0
12 0.4 0
12.4 0.4 0
12.8 0.4 0
13.2 0.4 0
13.6 0.4 0
14 0.4 0
14.4 0.4 0
14.8 0.4 0
15.2 0.4 0
15.6 0.4 0
16 0.4 0
16.4 0.4 0
16.8 0.4 0
17.2 0.4 0
17.6 0.4 0
18 0.4 0
18.4 0.4 0
18.8 0.4 0
19.2 0.4 0
19.6 0.4 0
20 0.4 0
20.4 0.4 0
20.8 0.4 0
21.2 0.4 0
21.6 0.4 0
22 0.4 0
22.4 0.4 0
22.8 0.4 0
23.2 0.4 0
23.6 0.4 0
24 0.4 0
24.4 0.4 0
24.8 0.4 0
25.2 0.4 0
25.6 0.4 0
26 0.4 0
26.4 0.4 0
26.8 0.4 0
27.2 0.4 0
27.6 0.4 0
28 0.4 0
28.4 0.4 0
28.8 0.4 0
29.2 0.4 0
29.6 0.4 0
30 0.4 0
30.4 0.4 0
30.8 0.4 0
31.2 0.4 0
31.6 0.4 0
32 0.4 0
32.4 0.4 0
32.8 0.4 0
33.2 0.4 0
33.6 0.4 0
34 0.4 0
34.4 0.4 0
34.8 0.4 0
35.2 0.4 0
35.6 0.4 0
36 0.4 0
36.4 0.4 0
36.8 0.4 0
37.2 0.4 0
37.6 0.4 0
38 0.4 0
38.4 0.4 0
38.8 0.4 0
39.2 0.4 0
39.6 0.4 0
40 0.4 0
40.4 0.4 0
0 0.5 0
0.4 0.5 0
0.8 0.5 0
1.2 0.5 0
1.6 0.5 0
2 0.5 0
2.4 0.5 0
2.8 0.5 0
3.2 0.5 0
3.6 0.5 0
4 0.5 0
4.4 0.5 0
4.8 0.5 0
5.2 0.5 0
5.6 0.5 0
6 0.5 0
6.4 0.5 0
6.8 0.5 0
7.2 0.5 0
7.6 0.5 0
8 0.5 0
8.4 0.5 0
8.8 0.5 0
9.2 0.5 0
9.6 0.5 0
10 0.5 0
10.4 0.5 0
10.8 0.5 0
11.2 0.5 0
11.6 0.5 0
12 0.5 0
12.4 0.5 0
12.8 0.5 0
13.2 0.5 0
13.6 0.5 0
14 0.5 0
14.4 0.5 0
14.8 0.5 0
15.2 0.5 0
15.6 0.5 0
16 0.5 0
16.4 0.5 0
16.8 0.5 0
17.2 0.5 0
17.6 0.5 0
18 0.5 0
18.4 0.5 0
18.8 0.5 0
19.2 0.5 0
19.6 0.5 0
20 0.5 0
20.4 0.5 0
20.8 0.5 0
21.2 0.5 0
21.6 0.5 0
22 0.5 0
22.4 0.5 0
22.8 0.5 0
23.2 0.5 0
23.6 0.5 0
24 0.5 0
24.4 0.5 0
24.8 0.5 0
25.2 0.5 0
25.6 0.5 0
26 0.5 0
26.4 0.5 0
26.8 0.5 0
27.2 0.5 0
27.6 0.5 0
28 0.5 0
28.4 0.5 0
28.8 0.5 0
29.2 0.5 0
29.6 0.5 0
30 0.5 0
30.4 0.5 0
30.8 0.5 0
31.2 0.5 0
31.6 0.5 0
32 0.5 0
32.4 0.5 0
32.8 0.5 0
33.2 0.5 0
33.6 0.5 0
34 0.5 0
34.4 0.5 0
34.8 0.5 0
35.2 0.5 0
35.6 0.5 0
36 0.5 0
36.4 0.5 0
36.8 0.5 0
37.2 0.5 0
37.6 0.5 0
38 0.5 0
38.4 0.5 0
38.8 0.5 0
39.2 0.5 0
39.6 0.5 0
40 0.5 0
40.4 0.5 0
0 0.6 0
0.4 0.6 0
0.8 0.6 0
1.2 0.6 0
1.6 0.6 0
2 0.6 0
2.4 0.6 0
2.8 0.6 0
3.2 0.6 0
3.6 0.6 0
4 0.6 0
4.4 0.6 0
4.8 0.6 0
5.2 0.6 0
5.6 0.6 0
6 0.6 0
6.4 0.6 0
6.8 0.6 0
7.2 0.6 0
7.6 0.6 0
8 0.6 0
8.4 0.6 0
8.8 0.6 0
9.2 0.6 0
9.6 0.6 0
10 0.6 0
10.4 0.6 0
10.8 0.6 0
11.2 0.6 0
11.6 0.6 0
12 0.6 0
12.4 0.6 0
12.8 0.6 0
13.2 0.6 0
13.6 0.6 0
14 0.6 0
14.4 0.6 0
14.8 0.6 0
15.2 0.6 0
15.6 0.6 0
16 0.6 0
16.4 0.6 0
16.8 0.6 0
17.2 0.6 0
17.6 0.6 0
18 0.6 0
18.4 0.6 0
18.8 0.6 0
19.2 0.6 0
19.6 0.6 0
20 0.6 0
20.4 0.6 0
20.8 0.6 0
21.2 0.6 0
21.6 0.6 0
22 0.6 0
22.4 0.6 0
22.8 0.6 0
23.2 0.6 0
23.6 0.6 0
24 0.6 0
24.4 0.6 0
24.8 0.6 0
25.2 0.6 0
25.6 0.6 0
26 0.6 0
26.4 0.6 0
26.8 0.6 0
27.2 0.6 0
27.6 0.6 0
28 0.6 0
28.4 0.6 0
28.8 0.6 0
29.2 0.6 0
29.6 0.6 0
30 0.6 0
30.4 0.6 0
30.8 0.6 0
31.2 0.6 0
31.6 0.6 0
32 0.6 0
32.4 0.6 0
32.8 0.6 0
33.2 0.6 0
33.6 0.6 0
34 0.6 0
34.4 0.6 0
34.8 0.6 0
35.2 0.6 0
35.6 0.6 0
36 0.6 0
36.4 0.6 0
36.8 0.6 0
37.2 0.6 0
37.6 0.6 0
38 0.6 0
38.4 0.6 0
38.8 0.6 0
39.2 0.6 0
39.6 0.6 0
40 0.6 0
40.4 0.6 0
0 0.7 0
0.4 0.7 0
0.8 0.7 0
1.2 0.7 0
1.6 0.7 0
2 0.7 0
2.4 0.7 0
2.8 0.7 0
3.2 0.7 0
3.6 0.7 0
4 0.7 0
4.4 0.7 0
4.8 0.7 0
5.2 0.7 0
5.6 0.7 0
6 0.7 0
6.4 0.7 0
6.8 0.7 0
7.2 0.7 0
7.6 0.7 0
8 0.7 0
8.4 0.7 0
8.8 0.7 0
9.2 0.7 0
9.6 0.7 0
10 0.7 0
10.4 0.7 0
10.8 0.7 0
11.2 0.7 0
11.6 0.7 0
12 0.7 0
12.4 0.7 0
12.8 0.7 0
13.2 0.7 0
13.6 0.7 0
14 0.7 0
14.4 0.7 0
14.8 0.7 0
15.2 0.7 0
15.6 0.7 0
16 0.7 0
16.4 0.7 0
16.8 0.7 0
17.2 0.7 0
17.6 0.7 0
18 0.7 0
18.4 0.7 0
18.8 0.7 0
19.2 0.7 0
19.6 0.7 0
20 0.7 0
20.4 0.7 0
20.8 0.7 0
21.2 0.7 0
21.6 0.7 0
22 0.7 0
22.4 0.7 0
22.8 0.7 0
23.2 0.7 0
23.6 0.7 0
24 0.7 0
24.4 0.7 0
24.8 0.7 0
25.2 0.7 0
25.6 0.7 0
26 0.7 0
26.4 0.7 0
26.8 0.7 0
27.2 0.7 0
27.6 0.7 0
28 0.7 0
28.4 0.7 0
28.8 0.7 0
29.2 0.7 0
29.6 0.7 0
30 0.7 0
30.4 0.7 0
30.8 0.7 0
31.2 0.7 0
31.6 0.7 0
32 0.7 0
32.4 0.7 0
32.8 0.7 0
33.2 0.7 0
33.6 0.7 0
34 0.7 0
34.4 0.7 0
34.8 0.7 0
35.2 0.7 0
35.6 0.7 0
36 0.7 0
36.4 0.7 0
36.8 0.7 0
37.2 0.7 0
37.6 0.7 0
38 0.7 0
38.4 0.7 0
38.8 0.7 0
39.2 0.7 0
39.6 0.7 0
40 0.7 0
40.4 0.7 0
0 0.8 0
0.4 0.8 0
0.8 0.8 0
1.2 0.8 0
1.6 0.8 0
2 0.8 0
2.4 0.8 0
2.8 0.8 0
3.2 0.8 0
3.6 0.8 0
4 0.8 0
4.4 0.8 0
4.8 0.8 0
5.2 0.8 0
5.6 0.8 0
6 0.8 0
6.4 0.8 0
6.8 0.8 0
7.2 0.8 0
7.6 0.8 0
8 0.8 0
8.4 0.8 0
8.8 0.8 0
9.2 0.8 0
9.6 0.8 0
10 0.8 0
10.4 0.8 0
10.8 0.8 0
11.2 0.8 0
11.6 0.8 0
12 0.8 0
12.4 0.8 0
12.8 0.8 0
13.2 0.8 0
13.6 0.8 0
14 0.8 0
14.4 0.8 0
14.8 0.8 0
15.2 0.8 0
15.6 0.8 0
16 0.8 0
16.4 0.8 0
16.8 0.8 0
17.2 0.8 0
17.6 0.8 0
18 0.8 0
18.4 0.8 0
18.8 0.8 0
19.2 0.8 0
19.6 0.8 0
20 0.8 0
20.4 0.8 0
20.8 0.8 0
21.2 0.8 0
21.6 0.8 0
22 0.8 0
22.4 0.8 0
22.8 0.8 0
23.2 0.8 0
23.6 0.8 0
24 0.8 0
24.4 0.8 0
24.8 0.8 0
25.2 0.8 0
25.6 0.8 0
26 0.8 0
26.4 0.8 0
26.8 0.8 0
27.2 0.8 0
27.6 0.8 0
28 0.8 0
28.4 0.8 0
28.8 0.8 0
29.2 0.8 0
29.6 0.8 0
30 0.8 0
30.4 0.8 0
30.8 0.8 0
31.2 0.8 0
31.6 0.8 0
32 0.8 0
32.4 0.8 0
32.8 0.8 0
33.2 0.8 0
33.6 0.8 0
34 0.8 0
34.4 0.8 0
34.8 0.8 0
35.2 0.8 0
35.6 0.8 0
36 0.8 0
36.4 0.8 0
36.8 0.8 0
37.2 0.8 0
37.6 0.8 0
38 0.8 0
38.4 0.8 0
38.8 0.8 0
39.2 0.8 0
39.6 0.8 0
40 0.8 0
40.4 0.8 0
0 0.9 0
0.4 0.9 0
0.8 0.9 0
1.2 0.9 0
1.6 0.9 0
2 0.9 0
2.4 0.9 0
2.8 0.9 0
3.2 0.9 0
3.6 0.9 0
4 0.9 0
4.4 0.9 0
4.8 0.9 0
5.2 0.9 0
5.6 0.9 0
6 0.9 0
6.4 0.9 0
6.8 0.9 0
7.2 0.9 0
7.6 0.9 0
8 0.9 0
8.4 0.9 0
8.8 0.9 0
9.2 0.9 0
9.6 0.9 0
10 0.9 0
10.4 0.9 0
10.8 0.9 0
11.2 0.9 0
11.6 0.9 0
12 0.9 0
12.4 0.9 0
12.8 0.9 0
13.2 0.9 0
13.6 0.9 0
14 0.9 0
14.4 0.9 0
14.8 0.9 0
15.2 0.9 0
15.6 0.9 0
16 0.9 0
16.4 0.9 0
16.8 0.9 0
17.2 0.9 0
17.6 0.9 0
18 0.9 0
18.4 0.9 0
18.8 0.9 0
19.2 0.9 0
19.6 0.9 0
20 0.9 0
20.4 0.9 0
20.8 0.9 0
21.2 0.9 0
21.6 0.9 0
22 0.9 0
22.4 0.9 0
22.8 0.9 0
23.2 0.9 0
23.6 0.9 0
24 0.9 0
24.4 0.9 0
24.8 0.9 0
25.2 0.9 0
25.6 0.9 0
26 0.9 0
26.4 0.9 0
26.8 0.9 0
27.2 0.9 0
27.6 0.9 0
28 0.9 0
28.4 0.9 0
28.8 0.9 0
29.2 0.9 0
29.6 0.9 0
30 0.9 0
30.4 0.9 0
30.8 0.9 0
31.2 0.9 0
31.6 0.9 0
32 0.9 0
32.4 0.9 0
32.8 0.9 0
33.2 0.9 0
33.6 0.9 0
34 0.9 0
34.4 0.9 0
34.8 0.9 0
35.2 0.9 0
35.6 0.9 0
36 0.9 0
36.4 0.9 0
36.8 0.9 0
37.2 0.9 0
37.6 0.9 0
38 0.9 0
38.4 0.9 0
38.8 0.9 0
39.2 0.9 0
39.6 0.9 0
40 0.9 0
40.4 0.9 0
0 1 0
0.4 1 0
0.8 1 0
1.2 1 0
1.6 1 0
2 1 0
2.4 1 0
2.8 1 0
3.2 1 0
3.6 1 0
4 1 0
4.4 1 0
4.8 1 0
5.2 1 0
5.6 1 0
6 1 0
6.4 1 0
6.8 1 0
7.2 1 0
7.6 1 0
8 1 0
8.4 1 0
8.8 1 0
9.2 1 0
9.6 1 0
10 1 0
10.4 1 0
10.8 1 0
11.2 1 0
11.6 1 0
12 1 0
12.4 1 0
12.8 1 0
13.2 1 0
13.6 1 0
14 1 0
14.4 1 0
14.8 1 0
15.2 1 0
15.6 1 0
16 1 0
16.4 1 0
16.8 1 0
17.2 1 0
17.6 1 0
18 1 0
18.4 1 0
18.8 1 0
19.2 1 0
19.6 1 0
20 1 0
20.4 1 0
20.8 1 0
21.2 1 0
21.6 1 0
22 1 0
22.4 1 0
22.8 1 0
23.2 1 0
23.6 1 0
24 1 0
24.4 1 0
24.8 1 0
25.2 1 0
25.6 1 0
26 1 0
26.4 1 0
26.8 1 0
27.2 1 0
27.6 1 0
28 1 0
28.4 1 0
28.8 1 0
29.2 1 0
29.6 1 0
30 1 0
30.4 1 0
30.8 1 0
31.2 1 0
31.6 1 0
32 1 0
32.4 1 0
32.8 1 0
33.2 1 0
33.6 1 0
34 1 0
34.4 1 0
34.8 1 0
35.2 1 0
35.6 1 0
36 1 0
36.4 1 0
36.8 1 0
37.2 1 0
37.6 1 0
38 1 0
38.4 1 0
38.8 1 0
39.2 1 0
39.6 1 0
40 1 0
40.4 1 0
0 1.1 0
0.4 1.1 0
0.8 1.1 0
1.2 1.1 0
1.6 1.1 0
2 1.1 0
2.4 1.1 0
2.8 1.1 0
3.2 1.1 0
3.6 1.1 0
4 1.1 0
4.4 1.1 0
4.8 1.1 0
5.2 1.1 0
5.6 1.1 0
6 1.1 0
6.4 1.1 0
6.8 1.1 0
7.2 1.1 0
7.6 1.1 0
8 1.1 0
8.4 1.1 0
8.8 1.1 0
9.2 1.1 0
9.6 1.1 0
10 1.1 0
10.4 1.1 0
10.8 1.1 0
11.2 1.1 0
11.6 1.1 0
12 1.1 0
12.4 1.1 0
12.8 1.1 0
13.2 1.1 0
13.6 1.1 0
14 1.1 0
14.4 1.1 0
14.8 1.1 0
15.2 1.1 0
15.6 1.1 0
16 1.1 0
16.4 1.1 0
16.8 1.1 0
17.2 1.1 0
17.6 1.1 0
18 1.1 0
18.4 1.1 0
18.8 1.1 0
19.2 1.1 0
19.6 1.1 0
20 1.1 0
20.4 1.1 0
20.8 1.1 0
21.2 1.1 0
21.6 1.1 0
22 1.1 0
22.4 1.1 0
22.8 1.1 0
23.2 1.1 0
23.6 1.1 0
24 1.1 0
24.4 1.1 0
24.8 1.1 0
25.2 1.1 0
25.6 1.1 0
26 1.1 0
26.4 1.1 0
26.8 1.1 0
27.2 1.1 0
27.6 1.1 0
28 1.1 0
28.4 1.1 0
28.8 1.1 0
29.2 1.1 0
29.6 1.1 0
30 1.1 0
30.4 1.1 0
30.8 1.1 0
31.2 1.1 0
31.6 1.1 0
32 1.1 0
32.4 1.1 0
32.8 1.1 0
33.2 1.1 0
33.6 1.1 0
34 1.1 0
34.4 1.1 0
34.8 1.1 0
35.2 1.1 0
35.6 1.1 0
36 1.1 0
36.4 1.1 0
36.8 1.1 0
37.2 1.1 0
37.6 1.1 0
38 1.1 0
38.4 1.1 0
38.8 1.1 0
39.2 1.1 0
39.6 1.1 0
40 1.1 0
40.4 1.1 0

POINT_DATA 1224

SCALARS u double
LOOKUP_TABLE default
-1.15741
-0.84259
-0.620832
-0.489866
-0.418546
-0.380487
-0.359965
-0.348903
-0.343146
-0.340354
-0.339126
-0.338648
-0.33849
-0.338449
-0.338443
-0.338445
-0.338447
-0.338448
-0.338448
-0.338448
-0.338449
-0.338449
-0.338449
-0.338449
-0.338449
-0.338449
-0.338449
-0.338449
-0.338449
-0.338449
-0.338449
-0.338449
-0.33845
-0.33845
-0.33845
-0.33845
-0.33845
-0.33845
-0.33845
-0.33845
-0.33845
-0.33845
-0.33845
-0.33845
-0.33845
-0.338451
-0.338451
-0.338451
-0.338451
-0.338451
-0.338451
-0.338451
-0.338451
-0.338451
-0.338451
-0.338451
-0.338451
-0.338451
-0.338451
-0.338452
-0.338452
-0.338452
-0.338452
-0.338452
-0.338452
-0.338452
-0.338452
-0.338452
-0.338452
-0.338452
-0.338452
-0.338452
-0.338452
-0.338452
-0.338452
-0.338453
-0.338453
-0.338453
-0.338453
-0.338453
-0.338453
-0.338453
-0.338453
-0.338453
-0.338453
-0.338453
-0.338453
-0.338453
-0.338453
-0.338453
-0.338453
-0.338453
-0.338454
-0.338454
-0.338454
-0.338454
-0.338453
-0.338467
-0.338458
-0.338607
-0.338607
-1
1.15741
0.84259
0.620832
0.489866
0.418546
0.380487
0.359965
0.348903
0.343146
0.340354
0.339126
0.338648
0.33849
0.338449
0.338443
0.338445
0.338447
0.338448
0.338448
0.338448
0.338449
0.338449
0.338449
0.338449
0.338449
0.338449
0.338449
0.338449
0.338449
0.338449
0.338449
0.338449
0.33845
0.33845
0.33845
0.33845
0.33845
0.33845
0.33845
0.33845
0.33845
0.33845
0.33845
0.33845
0.33845
0.338451
0.338451
0.338451
0.338451
0.338451
0.338451
0.338451
0.338451
0.338451
0.338451
0.338451
0.338451
0.338451
0.338451
0.338452
0.338452
0.338452
0.338452
0.338452
0.338452
0.338452
0.338452
0.338452
0.338452
0.338452
0.338452
0.338452
0.338452
0.338452
0.338452
0.338453
0.338453
0.338453
0.338453
0.338453
0.338453
0.338453
0.338453
0.338453
0.338453
0.338453
0.338453
0.338453
0.338453
0.338453
0.338453
0.338453
0.338454
0.338454
0.338454
0.338454
0.338453
0.338467
0.338458
0.338607
0.338607
1
0.976259
1.02374
1.00215
0.963666
0.926357
0.895915
0.873662
0.858991
0.850309
0.845727
0.843587
0.842714
0.842412
0.84233
0.842318
0.842321
0.842326
0.842328
0.842329
0.84233
0.84233
0.84233
0.84233
0.84233
0.842331
0.842331
0.842331
0.842331
0.842331
0.842331
0.842332
0.842332
0.842332
0.842332
0.842332
0.842332
0.842333
0.842333
0.842333
0.842333
0.842333
0.842333
0.842333
0.842334
0.842334
0.842334
0.842334
0.842334
0.842334
0.842334
0.842334
0.842335
0.842335
0.842335
0.842335
0.842335
0.842335
0.842335
0.842335
0.842335
0.842336
0.842336
0.842336
0.842336
0.842336
0.842336
0.842336
0.842336
0.842336
0.842336
0.842336
0.842337
0.842337
0.842337
0.842337
0.842337
0.842337
0.842337
0.842337
0.842337
0.842337
0.842337
0.842337
0.842337
0.842337
0.842337
0.842338
0.842338
0.842338
0.842338
0.842338
0.842338
0.842338
0.842338
0.842338
0.842339
0.842337
0.842351
0.842327
0.842648
0.842648
1
0.953236
1.04676
1.10996
1.14208
1.155
1.15818
1.15728
1.15524
1.15338
1.15209
1.15136
1.15101
1.15087
1.15083
1.15082
1.15082
1.15083
1.15083
1.15083
1.15083
1.15083
1.15083
1.15083
1.15083
1.15083
1.15083
1.15083
1.15083
1.15083
1.15083
1.15083
1.15083
1.15083
1.15083
1.15083
1.15083
1.15083
1.15083
1.15083
1.15083
1.15083
1.15083
1.15083
1.15083
1.15083
1.15083
1.15083
1.15083
1.15083
1.15083
1.15083
1.15083
1.15083
1.15083
1.15084
1.15084
1.15084
1.15084
1.15084
1.15084
1.15084
1.15084
1.15084
1.15084
1.15084
1.15084
1.15084
1.15084
1.15084
1.15084
1.15084
1.15084
1.15084
1.15084
1.15084
1.15084
1.15084
1.15084
1.15084
1.15084
1.15084
1.15084
1.15084
1.15084
1.15084
1.15084
1.15084
1.15084
1.15084
1.15084
1.15084
1.15084
1.15084
1.15084
1.15084
1.15084
1.15084
1.15084
1.15082
1.15094
1.15094
1
0.955196
1.0448
1.13262
1.19629
1.23842
1.2657
1.28308
1.29367
1.29965
1.30271
1.30411
1.30467
1.30486
1.30491
1.30492
1.30492
1.30492
1.30492
1.30492
1.30492
1.30492
1.30492
1.30492
1.30492
1.30492
1.30492
1.30492
1.30492
1.30492
1.30492
1.30492
1.30492
1.30492
1.30492
1.30492
1.30492
1.30492
1.30492
1.30492
1.30492
1.30492
1.30492
1.30492
1.30492
1.30492
1.30492
1.30492
1.30492
1.30492
1.30492
1.30492
1.30492
1.30492
1.30492
1.30492
1.30492
1.30492
1.30492
1.30492
1.30492
1.30492
1.30492
1.30492
1.30492
1.30492
1.30492
1.30492
1.30492
1.30492
1.30492
1.30492
1.30492
1.30492
1.30492
1.30492
1.30492
1.30492
1.30492
1.30492
1.30492
1.30492
1.30492
1.30492
1.30492
1.30492
1.30492
1.30492
1.30492
1.30492
1.30492
1.30492
1.30492
1.30492
1.30492
1.30492
1.30492
1.30492
1.30491
1.30492
1.30473
1.30473
1
0.957899
1.0421
1.13444
1.2081
1.26168
1.29972
1.32601
1.3432
1.35352
1.35912
1.36182
1.36296
1.36337
1.36349
1.3635
1.3635
1.36349
1.36349
1.36349
1.36348
1.36348
1.36348
1.36348
1.36348
1.36348
1.36348
1.36348
1.36348
1.36348
1.36348
1.36348
1.36348
1.36348
1.36348
1.36348
1.36348
1.36348
1.36348
1.36348
1.36348
1.36348
1.36348
1.36348
1.36348
1.36348
1.36348
1.36348
1.36348
1.36348
1.36348
1.36348
1.36348
1.36348
1.36348
1.36348
1.36348
1.36348
1.36348
1.36348
1.36348
1.36348
1.36348
1.36348
1.36348
1.36348
1.36348
1.36348
1.36348
1.36348
1.36348
1.36348
1.36348
1.36348
1.36348
1.36348
1.36348
1.36348
1.36348
1.36348
1.36348
1.36348
1.36348
1.36348
1.36348
1.36348
1.36348
1.36348
1.36348
1.36348
1.36348
1.36348
1.36348
1.36348
1.36348
1.36348
1.36348
1.36349
1.36347
1.3635
1.36312
1.36312
1
0.957899
1.0421
1.13444
1.2081
1.26168
1.29972
1.32601
1.3432
1.35352
1.35912
1.36182
1.36296
1.36337
1.36349
1.3635
1.3635
1.36349
1.36349
1.36348
1.36348
1.36348
1.36348
1.36348
1.36348
1.36348
1.36348
1.36348
1.36348
1.36348
1.36348
1.36348
1.36348
1.36348
1.36348
1.36348
1.36348
1.36348
1.36348
1.36348
1.36348
1.36348
1.36348
1.36348
1.36348
1.36348
1.36348
1.36348
1.36348
1.36348
1.36348
1.36348
1.36348
1.36348
1.36348
1.36348
1.36348
1.36348
1.36348
1.36348
1.36348
1.36348
1.36348
1.36348
1.36348
1.36348
1.36348
1.36348
1.36348
1.36348
1.36348
1.36348
1.36348
1.36348
1.36348
1.36348
1.36348
1.36348
1.36348
1.36348
1.36348
1.36348
1.36348
1.36348
1.36348
1.36348
1.36348
1.36348
1.36348
1.36348
1.36348
1.36348
1.36348
1.36348
1.36348
1.36348
1.36348
1.36349
1.36347
1.3635
1.36312
1.36312
1
0.955196
1.0448
1.13262
1.19629
1.23842
1.2657
1.28308
1.29367
1.29965
1.30271
1.30411
1.30467
1.30486
1.30491
1.30492
1.30492
1.30492
1.30492
1.30492
1.30492
1.30492
1.30492
1.30492
1.30492
1.30492
1.30492
1.30492
1.30492
1.30492
1.30492
1.30492
1.30492
1.30492
1.30492
1.30492
1.30492
1.30492
1.30492
1.30492
1.30492
1.30492
1.30492
1.30492
1.30492
1.30492
1.30492
1.30492
1.30492
1.30492
1.30492
1.30492
1.30492
1.30492
1.30492
1.30492
1.30492
1.30492
1.30492
1.30492
1.30492
1.30492
1.30492
1.30492
1.30492
1.30492
1.30492
1.30492
1.30492
1.30492
1.30492
1.30492
1.30492
1.30492
1.30492
1.30492
1.30492
1.30492
1.30492
1.30492
1.30492
1.30492
1.30492
1.30492
1.30492
1.30492
1.30492
1.30492
1.30492
1.30492
1.30492
1.30492
1.30492
1.30492
1.30492
1.30492
1.30492
1.30492
1.30491
1.30492
1.30473
1.30473
1
0.953236
1.04676
1.10996
1.14208
1.155
1.15818
1.15728
1.15524
1.15338
1.15209
1.15136
1.15101
1.15087
1.15083
1.15082
1.15082
1.15083
1.15083
1.15083
1.15083
1.15083
1.15083
1.15083
1.15083
1.15083
1.15083
1.15083
1.15083
1.15083
1.15083
1.15083
1.15083
1.15083
1.15083
1.15083
1.15083
1.15083
1.15083
1.15083
1.15083
1.15083
1.15083
1.15083
1.15083
1.15083
1.15083
1.15083
1.15083
1.15083
1.15083
1.15083
1.15083
1.15083
1.15083
1.15083
1.15083
1.15083
1.15083
1.15083
1.15083
1.15083
1.15083
1.15083
1.15083
1.15083
1.15083
1.15083
1.15083
1.15083
1.15083
1.15083
1.15083
1.15083
1.15083
1.15083
1.15083
1.15083
1.15083
1.15083
1.15083
1.15083
1.15083
1.15083
1.15083
1.15083
1.15083
1.15083
1.15083
1.15083
1.15083
1.15083
1.15083
1.15083
1.15083
1.15083
1.15083
1.15083
1.15084
1.15082
1.15094
1.15094
1
0.976259
1.02374
1.00215
0.963667
0.926358
0.895916
0.873663
0.858991
0.850309
0.845727
0.843587
0.842714
0.842412
0.84233
0.842318
0.842321
0.842325
0.842327
0.842329
0.842329
0.842329
0.84233
0.84233
0.84233
0.84233
0.84233
0.84233
0.842331
0.842331
0.842331
0.842331
0.842331
0.842331
0.842331
0.842331
0.842332
0.842332
0.842332
0.842332
0.842332
0.842332
0.842332
0.842332
0.842333
0.842333
0.842333
0.842333
0.842333
0.842333
0.842333
0.842333
0.842333
0.842333
0.842334
0.842334
0.842334
0.842334
0.842334
0.842334
0.842334
0.842334
0.842334
0.842334
0.842334
0.842334
0.842334
0.842335
0.842335
0.842335
0.842335
0.842335
0.842335
0.842335
0.842335
0.842335
0.842335
0.842335
0.842335
0.842335
0.842335
0.842335
0.842335
0.842335
0.842335
0.842335
0.842335
0.842336
0.842336
0.842336
0.842336
0.842336
0.842336
0.842336
0.842336
0.842336
0.842337
0.842335
0.842349
0.842325
0.842646
0.842646
1
1.15741
0.84259
0.620833
0.489867
0.418547
0.380488
0.359965
0.348903
0.343147
0.340354
0.339126
0.338649
0.33849
0.338449
0.338443
0.338445
0.338447
0.338448
0.338448
0.338449
0.338449
0.338449
0.338449
0.338449
0.338449
0.338449
0.338449
0.338449
0.338449
0.338449
0.338449
0.338449
0.33845
0.33845
0.33845
0.33845
0.33845
0.33845
0.33845
0.33845
0.33845
0.33845
0.33845
0.33845
0.33845
0.33845
0.33845
0.33845
0.33845
0.33845
0.338451
0.338451
0.338451
0.338451
0.338451
0.338451
0.338451
0.338451
0.338451
0.338451
0.338451
0.338451
0.338451
0.338451
0.338451
0.338451
0.338451
0.338451
0.338451
0.338451
0.338451
0.338451
0.338452
0.338452
0.338452
0.338452
0.338452
0.338452
0.338452
0.338452
0.338452
0.338452
0.338452
0.338452
0.338452
0.338452
0.338452
0.338452
0.338452
0.338452
0.338452
0.338452
0.338452
0.338453
0.338452
0.338453
0.338452
0.338466
0.338457
0.338606
0.338606
1
-1.15741
-0.84259
-0.620833
-0.489867
-0.418547
-0.380488
-0.359965
-0.348903
-0.343147
-0.340354
-0.339126
-0.338649
-0.33849
-0.338449
-0.338443
-0.338445
-0.338447
-0.338448
-0.338448
-0.338449
-0.338449
-0.338449
-0.338449
-0.338449
-0.338449
-0.338449
-0.338449
-0.338449
-0.338449
-0.338449
-0.338449
-0.338449
-0.33845
-0.33845
-0.33845
-0.33845
-0.33845
-0.33845
-0.33845
-0.33845
-0.33845
-0.33845
-0.33845
-0.33845
-0.33845
-0.33845
-0.33845
-0.33845
-0.33845
-0.33845
-0.338451
-0.338451
-0.338451
-0.338451
-0.338451
-0.338451
-0.338451
-0.338451
-0.338451
-0.338451
-0.338451
-0.338451
-0.338451
-0.338451
-0.338451
-0.338451
-0.338451
-0.338451
-0.338451
-0.338451
-0.338451
-0.338451
-0.338452
-0.338452
-0.338452
-0.338452
-0.338452
-0.338452
-0.338452
-0.338452
-0.338452
-0.338452
-0.338452
-0.338452
-0.338452
-0.338452
-0.338452
-0.338452
-0.338452
-0.338452
-0.338452
-0.338452
-0.338452
-0.338453
-0.338452
-0.338453
-0.338452
-0.338466
-0.338457
-0.338606
-0.338606
-1
