# vtk DataFile Version 2.0
FlowField
ASCII
DATASET STRUCTURED_GRID
DIMENSIONS 102 12 1 
POINTS 1224 double
0 0 0
0.3 0 0
0.6 0 0
0.9 0 0
1.2 0 0
1.5 0 0
1.8 0 0
2.1 0 0
2.4 0 0
2.7 0 0
3 0 0
3.3 0 0
3.6 0 0
3.9 0 0
4.2 0 0
4.5 0 0
4.8 0 0
5.1 0 0
5.4 0 0
5.7 0 0
6 0 0
6.3 0 0
6.6 0 0
6.9 0 0
7.2 0 0
7.5 0 0
7.8 0 0
8.1 0 0
8.4 0 0
8.7 0 0
9 0 0
9.3 0 0
9.6 0 0
9.9 0 0
10.2 0 0
10.5 0 0
10.8 0 0
11.1 0 0
11.4 0 0
11.7 0 0
12 0 0
12.3 0 0
12.6 0 0
12.9 0 0
13.2 0 0
13.5 0 0
13.8 0 0
14.1 0 0
14.4 0 0
14.7 0 0
15 0 0
15.3 0 0
15.6 0 0
15.9 0 0
16.2 0 0
16.5 0 0
16.8 0 0
17.1 0 0
17.4 0 0
17.7 0 0
18 0 0
18.3 0 0
18.6 0 0
18.9 0 0
19.2 0 0
19.5 0 0
19.8 0 0
20.1 0 0
20.4 0 0
20.7 0 0
21 0 0
21.3 0 0
21.6 0 0
21.9 0 0
22.2 0 0
22.5 0 0
22.8 0 0
23.1 0 0
23.4 0 0
23.7 0 0
24 0 0
24.3 0 0
24.6 0 0
24.9 0 0
25.2 0 0
25.5 0 0
25.8 0 0
26.1 0 0
26.4 0 0
26.7 0 0
27 0 0
27.3 0 0
27.6 0 0
27.9 0 0
28.2 0 0
28.5 0 0
28.8 0 0
29.1 0 0
29.4 0 0
29.7 0 0
30 0 0
30.3 0 0
0 0.1 0
0.3 0.1 0
0.6 0.1 0
0.9 0.1 0
1.2 0.1 0
1.5 0.1 0
1.8 0.1 0
2.1 0.1 0
2.4 0.1 0
2.7 0.1 0
3 0.1 0
3.3 0.1 0
3.6 0.1 0
3.9 0.1 0
4.2 0.1 0
4.5 0.1 0
4.8 0.1 0
5.1 0.1 0
5.4 0.1 0
5.7 0.1 0
6 0.1 0
6.3 0.1 0
6.6 0.1 0
6.9 0.1 0
7.2 0.1 0
7.5 0.1 0
7.8 0.1 0
8.1 0.1 0
8.4 0.1 0
8.7 0.1 0
9 0.1 0
9.3 0.1 0
9.6 0.1 0
9.9 0.1 0
10.2 0.1 0
10.5 0.1 0
10.8 0.1 0
11.1 0.1 0
11.4 0.1 0
11.7 0.1 0
12 0.1 0
12.3 0.1 0
12.6 0.1 0
12.9 0.1 0
13.2 0.1 0
13.5 0.1 0
13.8 0.1 0
14.1 0.1 0
14.4 0.1 0
14.7 0.1 0
15 0.1 0
15.3 0.1 0
15.6 0.1 0
15.9 0.1 0
16.2 0.1 0
16.5 0.1 0
16.8 0.1 0
17.1 0.1 0
17.4 0.1 0
17.7 0.1 0
18 0.1 0
18.3 0.1 0
18.6 0.1 0
18.9 0.1 0
19.2 0.1 0
19.5 0.1 0
19.8 0.1 0
20.1 0.1 0
20.4 0.1 0
20.7 0.1 0
21 0.1 0
21.3 0.1 0
21.6 0.1 0
21.9 0.1 0
22.2 0.1 0
22.5 0.1 0
22.8 0.1 0
23.1 0.1 0
23.4 0.1 0
23.7 0.1 0
24 0.1 0
24.3 0.1 0
24.6 0.1 0
24.9 0.1 0
25.2 0.1 0
25.5 0.1 0
25.8 0.1 0
26.1 0.1 0
26.4 0.1 0
26.7 0.1 0
27 0.1 0
27.3 0.1 0
27.6 0.1 0
27.9 0.1 0
28.2 0.1 0
28.5 0.1 0
28.8 0.1 0
29.1 0.1 0
29.4 0.1 0
29.7 0.1 0
30 0.1 0
30.3 0.1 0
0 0.2 0
0.3 0.2 0
0.6 0.2 0
0.9 0.2 0
1.2 0.2 0
1.5 0.2 0
1.8 0.2 0
2.1 0.2 0
2.4 0.2 0
2.7 0.2 0
3 0.2 0
3.3 0.2 0
3.6 0.2 0
3.9 0.2 0
4.2 0.2 0
4.5 0.2 0
4.8 0.2 0
5.1 0.2 0
5.4 0.2 0
5.7 0.2 0
6 0.2 0
6.3 0.2 0
6.6 0.2 0
6.9 0.2 0
7.2 0.2 0
7.5 0.2 0
7.8 0.2 0
8.1 0.2 0
8.4 0.2 0
8.7 0.2 0
9 0.2 0
9.3 0.2 0
9.6 0.2 0
9.9 0.2 0
10.2 0.2 0
10.5 0.2 0
10.8 0.2 0
11.1 0.2 0
11.4 0.2 0
11.7 0.2 0
12 0.2 0
12.3 0.2 0
12.6 0.2 0
12.9 0.2 0
13.2 0.2 0
13.5 0.2 0
13.8 0.2 0
14.1 0.2 0
14.4 0.2 0
14.7 0.2 0
15 0.2 0
15.3 0.2 0
15.6 0.2 0
15.9 0.2 0
16.2 0.2 0
16.5 0.2 0
16.8 0.2 0
17.1 0.2 0
17.4 0.2 0
17.7 0.2 0
18 0.2 0
18.3 0.2 0
18.6 0.2 0
18.9 0.2 0
19.2 0.2 0
19.5 0.2 0
19.8 0.2 0
20.1 0.2 0
20.4 0.2 0
20.7 0.2 0
21 0.2 0
21.3 0.2 0
21.6 0.2 0
21.9 0.2 0
22.2 0.2 0
22.5 0.2 0
22.8 0.2 0
23.1 0.2 0
23.4 0.2 0
23.7 0.2 0
24 0.2 0
24.3 0.2 0
24.6 0.2 0
24.9 0.2 0
25.2 0.2 0
25.5 0.2 0
25.8 0.2 0
26.1 0.2 0
26.4 0.2 0
26.7 0.2 0
27 0.2 0
27.3 0.2 0
27.6 0.2 0
27.9 0.2 0
28.2 0.2 0
28.5 0.2 0
28.8 0.2 0
29.1 0.2 0
29.4 0.2 0
29.7 0.2 0
30 0.2 0
30.3 0.2 0
0 0.3 0
0.3 0.3 0
0.6 0.3 0
0.9 0.3 0
1.2 0.3 0
1.5 0.3 0
1.8 0.3 0
2.1 0.3 0
2.4 0.3 0
2.7 0.3 0
3 0.3 0
3.3 0.3 0
3.6 0.3 0
3.9 0.3 0
4.2 0.3 0
4.5 0.3 0
4.8 0.3 0
5.1 0.3 0
5.4 0.3 0
5.7 0.3 0
6 0.3 0
6.3 0.3 0
6.6 0.3 0
6.9 0.3 0
7.2 0.3 0
7.5 0.3 0
7.8 0.3 0
8.1 0.3 0
8.4 0.3 0
8.7 0.3 0
9 0.3 0
9.3 0.3 0
9.6 0.3 0
9.9 0.3 0
10.2 0.3 0
10.5 0.3 0
10.8 0.3 0
11.1 0.3 0
11.4 0.3 0
11.7 0.3 0
12 0.3 0
12.3 0.3 0
12.6 0.3 0
12.9 0.3 0
13.2 0.3 0
13.5 0.3 0
13.8 0.3 0
14.1 0.3 0
14.4 0.3 0
14.7 0.3 0
15 0.3 0
15.3 0.3 0
15.6 0.3 0
15.9 0.3 0
16.2 0.3 0
16.5 0.3 0
16.8 0.3 0
17.1 0.3 0
17.4 0.3 0
17.7 0.3 0
18 0.3 0
18.3 0.3 0
18.6 0.3 0
18.9 0.3 0
19.2 0.3 0
19.5 0.3 0
19.8 0.3 0
20.1 0.3 0
20.4 0.3 0
20.7 0.3 0
21 0.3 0
21.3 0.3 0
21.6 0.3 0
21.9 0.3 0
22.2 0.3 0
22.5 0.3 0
22.8 0.3 0
23.1 0.3 0
23.4 0.3 0
23.7 0.3 0
24 0.3 0
24.3 0.3 0
24.6 0.3 0
24.9 0.3 0
25.2 0.3 0
25.5 0.3 0
25.8 0.3 0
26.1 0.3 0
26.4 0.3 0
26.7 0.3 0
27 0.3 0
27.3 0.3 0
27.6 0.3 0
27.9 0.3 0
28.2 0.3 0
28.5 0.3 0
28.8 0.3 0
29.1 0.3 0
29.4 0.3 0
29.7 0.3 0
30 0.3 0
30.3 0.3 0
0 0.4 0
0.3 0.4 0
0.6 0.4 0
0.9 0.4 0
1.2 0.4 0
1.5 0.4 0
1.8 0.4 0
2.1 0.4 0
2.4 0.4 0
2.7 0.4 0
3 0.4 0
3.3 0.4 0
3.6 0.4 0
3.9 0.4 0
4.2 0.4 0
4.5 0.4 0
4.8 0.4 0
5.1 0.4 0
5.4 0.4 0
5.7 0.4 0
6 0.4 0
6.3 0.4 0
6.6 0.4 0
6.9 0.4 0
7.2 0.4 0
7.5 0.4 0
7.8 0.4 0
8.1 0.4 0
8.4 0.4 0
8.7 0.4 0
9 0.4 0
9.3 0.4 0
9.6 0.4 0
9.9 0.4 0
10.2 0.4 0
10.5 0.4 0
10.8 0.4 0
11.1 0.4 0
11.4 0.4 0
11.7 0.4 0
12 0.4 0
12.3 0.4 0
12.6 0.4 0
12.9 0.4 0
13.2 0.4 0
13.5 0.4 0
13.8 0.4 0
14.1 0.4 0
14.4 0.4 0
14.7 0.4 0
15 0.4 0
15.3 0.4 0
15.6 0.4 0
15.9 0.4 0
16.2 0.4 0
16.5 0.4 0
16.8 0.4 0
17.1 0.4 0
17.4 0.4 0
17.7 0.4 0
18 0.4 0
18.3 0.4 0
18.6 0.4 0
18.9 0.4 0
19.2 0.4 0
19.5 0.4 0
19.8 0.4 0
20.1 0.4 0
20.4 0.4 0
20.7 0.4 0
21 0.4 0
21.3 0.4 0
21.6 0.4 0
21.9 0.4 0
22.2 0.4 0
22.5 0.4 0
22.8 0.4 0
23.1 0.4 0
23.4 0.4 0
23.7 0.4 0
24 0.4 0
24.3 0.4 0
24.6 0.4 0
24.9 0.4 0
25.2 0.4 0
25.5 0.4 0
25.8 0.4 0
26.1 0.4 0
26.4 0.4 0
26.7 0.4 0
27 0.4 0
27.3 0.4 0
27.6 0.4 0
27.9 0.4 0
28.2 0.4 0
28.5 0.4 0
28.8 0.4 0
29.1 0.4 0
29.4 0.4 0
29.7 0.4 0
30 0.4 0
30.3 0.4 0
0 0.5 0
0.3 0.5 0
0.6 0.5 0
0.9 0.5 0
1.2 0.5 0
1.5 0.5 0
1.8 0.5 0
2.1 0.5 0
2.4 0.5 0
2.7 0.5 0
3 0.5 0
3.3 0.5 0
3.6 0.5 0
3.9 0.5 0
4.2 0.5 0
4.5 0.5 0
4.8 0.5 0
5.1 0.5 0
5.4 0.5 0
5.7 0.5 0
6 0.5 0
6.3 0.5 0
6.6 0.5 0
6.9 0.5 0
7.2 0.5 0
7.5 0.5 0
7.8 0.5 0
8.1 0.5 0
8.4 0.5 0
8.7 0.5 0
9 0.5 0
9.3 0.5 0
9.6 0.5 0
9.9 0.5 0
10.2 0.5 0
10.5 0.5 0
10.8 0.5 0
11.1 0.5 0
11.4 0.5 0
11.7 0.5 0
12 0.5 0
12.3 0.5 0
12.6 0.5 0
12.9 0.5 0
13.2 0.5 0
13.5 0.5 0
13.8 0.5 0
14.1 0.5 0
14.4 0.5 0
14.7 0.5 0
15 0.5 0
15.3 0.5 0
15.6 0.5 0
15.9 0.5 0
16.2 0.5 0
16.5 0.5 0
16.8 0.5 0
17.1 0.5 0
17.4 0.5 0
17.7 0.5 0
18 0.5 0
18.3 0.5 0
18.6 0.5 0
18.9 0.5 0
19.2 0.5 0
19.5 0.5 0
19.8 0.5 0
20.1 0.5 0
20.4 0.5 0
20.7 0.5 0
21 0.5 0
21.3 0.5 0
21.6 0.5 0
21.9 0.5 0
22.2 0.5 0
22.5 0.5 0
22.8 0.5 0
23.1 0.5 0
23.4 0.5 0
23.7 0.5 0
24 0.5 0
24.3 0.5 0
24.6 0.5 0
24.9 0.5 0
25.2 0.5 0
25.5 0.5 0
25.8 0.5 0
26.1 0.5 0
26.4 0.5 0
26.7 0.5 0
27 0.5 0
27.3 0.5 0
27.6 0.5 0
27.9 0.5 0
28.2 0.5 0
28.5 0.5 0
28.8 0.5 0
29.1 0.5 0
29.4 0.5 0
29.7 0.5 0
30 0.5 0
30.3 0.5 0
0 0.6 0
0.3 0.6 0
0.6 0.6 0
0.9 0.6 0
1.2 0.6 0
1.5 0.6 0
1.8 0.6 0
2.1 0.6 0
2.4 0.6 0
2.7 0.6 0
3 0.6 0
3.3 0.6 0
3.6 0.6 0
3.9 0.6 0
4.2 0.6 0
4.5 0.6 0
4.8 0.6 0
5.1 0.6 0
5.4 0.6 0
5.7 0.6 0
6 0.6 0
6.3 0.6 0
6.6 0.6 0
6.9 0.6 0
7.2 0.6 0
7.5 0.6 0
7.8 0.6 0
8.1 0.6 0
8.4 0.6 0
8.7 0.6 0
9 0.6 0
9.3 0.6 0
9.6 0.6 0
9.9 0.6 0
10.2 0.6 0
10.5 0.6 0
10.8 0.6 0
11.1 0.6 0
11.4 0.6 0
11.7 0.6 0
12 0.6 0
12.3 0.6 0
12.6 0.6 0
12.9 0.6 0
13.2 0.6 0
13.5 0.6 0
13.8 0.6 0
14.1 0.6 0
14.4 0.6 0
14.7 0.6 0
15 0.6 0
15.3 0.6 0
15.6 0.6 0
15.9 0.6 0
16.2 0.6 0
16.5 0.6 0
16.8 0.6 0
17.1 0.6 0
17.4 0.6 0
17.7 0.6 0
18 0.6 0
18.3 0.6 0
18.6 0.6 0
18.9 0.6 0
19.2 0.6 0
19.5 0.6 0
19.8 0.6 0
20.1 0.6 0
20.4 0.6 0
20.7 0.6 0
21 0.6 0
21.3 0.6 0
21.6 0.6 0
21.9 0.6 0
22.2 0.6 0
22.5 0.6 0
22.8 0.6 0
23.1 0.6 0
23.4 0.6 0
23.7 0.6 0
24 0.6 0
24.3 0.6 0
24.6 0.6 0
24.9 0.6 0
25.2 0.6 0
25.5 0.6 0
25.8 0.6 0
26.1 0.6 0
26.4 0.6 0
26.7 0.6 0
27 0.6 0
27.3 0.6 0
27.6 0.6 0
27.9 0.6 0
28.2 0.6 0
28.5 0.6 0
28.8 0.6 0
29.1 0.6 0
29.4 0.6 0
29.7 0.6 0
30 0.6 0
30.3 0.6 0
0 0.7 0
0.3 0.7 0
0.6 0.7 0
0.9 0.7 0
1.2 0.7 0
1.5 0.7 0
1.8 0.7 0
2.1 0.7 0
2.4 0.7 0
2.7 0.7 0
3 0.7 0
3.3 0.7 0
3.6 0.7 0
3.9 0.7 0
4.2 0.7 0
4.5 0.7 0
4.8 0.7 0
5.1 0.7 0
5.4 0.7 0
5.7 0.7 0
6 0.7 0
6.3 0.7 0
6.6 0.7 0
6.9 0.7 0
7.2 0.7 0
7.5 0.7 0
7.8 0.7 0
8.1 0.7 0
8.4 0.7 0
8.7 0.7 0
9 0.7 0
9.3 0.7 0
9.6 0.7 0
9.9 0.7 0
10.2 0.7 0
10.5 0.7 0
10.8 0.7 0
11.1 0.7 0
11.4 0.7 0
11.7 0.7 0
12 0.7 0
12.3 0.7 0
12.6 0.7 0
12.9 0.7 0
13.2 0.7 0
13.5 0.7 0
13.8 0.7 0
14.1 0.7 0
14.4 0.7 0
14.7 0.7 0
15 0.7 0
15.3 0.7 0
15.6 0.7 0
15.9 0.7 0
16.2 0.7 0
16.5 0.7 0
16.8 0.7 0
17.1 0.7 0
17.4 0.7 0
17.7 0.7 0
18 0.7 0
18.3 0.7 0
18.6 0.7 0
18.9 0.7 0
19.2 0.7 0
19.5 0.7 0
19.8 0.7 0
20.1 0.7 0
20.4 0.7 0
20.7 0.7 0
21 0.7 0
21.3 0.7 0
21.6 0.7 0
21.9 0.7 0
22.2 0.7 0
22.5 0.7 0
22.8 0.7 0
23.1 0.7 0
23.4 0.7 0
23.7 0.7 0
24 0.7 0
24.3 0.7 0
24.6 0.7 0
24.9 0.7 0
25.2 0.7 0
25.5 0.7 0
25.8 0.7 0
26.1 0.7 0
26.4 0.7 0
26.7 0.7 0
27 0.7 0
27.3 0.7 0
27.6 0.7 0
27.9 0.7 0
28.2 0.7 0
28.5 0.7 0
28.8 0.7 0
29.1 0.7 0
29.4 0.7 0
29.7 0.7 0
30 0.7 0
30.3 0.7 0
0 0.8 0
0.3 0.8 0
0.6 0.8 0
0.9 0.8 0
1.2 0.8 0
1.5 0.8 0
1.8 0.8 0
2.1 0.8 0
2.4 0.8 0
2.7 0.8 0
3 0.8 0
3.3 0.8 0
3.6 0.8 0
3.9 0.8 0
4.2 0.8 0
4.5 0.8 0
4.8 0.8 0
5.1 0.8 0
5.4 0.8 0
5.7 0.8 0
6 0.8 0
6.3 0.8 0
6.6 0.8 0
6.9 0.8 0
7.2 0.8 0
7.5 0.8 0
7.8 0.8 0
8.1 0.8 0
8.4 0.8 0
8.7 0.8 0
9 0.8 0
9.3 0.8 0
9.6 0.8 0
9.9 0.8 0
10.2 0.8 0
10.5 0.8 0
10.8 0.8 0
11.1 0.8 0
11.4 0.8 0
11.7 0.8 0
12 0.8 0
12.3 0.8 0
12.6 0.8 0
12.9 0.8 0
13.2 0.8 0
13.5 0.8 0
13.8 0.8 0
14.1 0.8 0
14.4 0.8 0
14.7 0.8 0
15 0.8 0
15.3 0.8 0
15.6 0.8 0
15.9 0.8 0
16.2 0.8 0
16.5 0.8 0
16.8 0.8 0
17.1 0.8 0
17.4 0.8 0
17.7 0.8 0
18 0.8 0
18.3 0.8 0
18.6 0.8 0
18.9 0.8 0
19.2 0.8 0
19.5 0.8 0
19.8 0.8 0
20.1 0.8 0
20.4 0.8 0
20.7 0.8 0
21 0.8 0
21.3 0.8 0
21.6 0.8 0
21.9 0.8 0
22.2 0.8 0
22.5 0.8 0
22.8 0.8 0
23.1 0.8 0
23.4 0.8 0
23.7 0.8 0
24 0.8 0
24.3 0.8 0
24.6 0.8 0
24.9 0.8 0
25.2 0.8 0
25.5 0.8 0
25.8 0.8 0
26.1 0.8 0
26.4 0.8 0
26.7 0.8 0
27 0.8 0
27.3 0.8 0
27.6 0.8 0
27.9 0.8 0
28.2 0.8 0
28.5 0.8 0
28.8 0.8 0
29.1 0.8 0
29.4 0.8 0
29.7 0.8 0
30 0.8 0
30.3 0.8 0
0 0.9 0
0.3 0.9 0
0.6 0.9 0
0.9 0.9 0
1.2 0.9 0
1.5 0.9 0
1.8 0.9 0
2.1 0.9 0
2.4 0.9 0
2.7 0.9 0
3 0.9 0
3.3 0.9 0
3.6 0.9 0
3.9 0.9 0
4.2 0.9 0
4.5 0.9 0
4.8 0.9 0
5.1 0.9 0
5.4 0.9 0
5.7 0.9 0
6 0.9 0
6.3 0.9 0
6.6 0.9 0
6.9 0.9 0
7.2 0.9 0
7.5 0.9 0
7.8 0.9 0
8.1 0.9 0
8.4 0.9 0
8.7 0.9 0
9 0.9 0
9.3 0.9 0
9.6 0.9 0
9.9 0.9 0
10.2 0.9 0
10.5 0.9 0
10.8 0.9 0
11.1 0.9 0
11.4 0.9 0
11.7 0.9 0
12 0.9 0
12.3 0.9 0
12.6 0.9 0
12.9 0.9 0
13.2 0.9 0
13.5 0.9 0
13.8 0.9 0
14.1 0.9 0
14.4 0.9 0
14.7 0.9 0
15 0.9 0
15.3 0.9 0
15.6 0.9 0
15.9 0.9 0
16.2 0.9 0
16.5 0.9 0
16.8 0.9 0
17.1 0.9 0
17.4 0.9 0
17.7 0.9 0
18 0.9 0
18.3 0.9 0
18.6 0.9 0
18.9 0.9 0
19.2 0.9 0
19.5 0.9 0
19.8 0.9 0
20.1 0.9 0
20.4 0.9 0
20.7 0.9 0
21 0.9 0
21.3 0.9 0
21.6 0.9 0
21.9 0.9 0
22.2 0.9 0
22.5 0.9 0
22.8 0.9 0
23.1 0.9 0
23.4 0.9 0
23.7 0.9 0
24 0.9 0
24.3 0.9 0
24.6 0.9 0
24.9 0.9 0
25.2 0.9 0
25.5 0.9 0
25.8 0.9 0
26.1 0.9 0
26.4 0.9 0
26.7 0.9 0
27 0.9 0
27.3 0.9 0
27.6 0.9 0
27.9 0.9 0
28.2 0.9 0
28.5 0.9 0
28.8 0.9 0
29.1 0.9 0
29.4 0.9 0
29.7 0.9 0
30 0.9 0
30.3 0.9 0
0 1 0
0.3 1 0
0.6 1 0
0.9 1 0
1.2 1 0
1.5 1 0
1.8 1 0
2.1 1 0
2.4 1 0
2.7 1 0
3 1 0
3.3 1 0
3.6 1 0
3.9 1 0
4.2 1 0
4.5 1 0
4.8 1 0
5.1 1 0
5.4 1 0
5.7 1 0
6 1 0
6.3 1 0
6.6 1 0
6.9 1 0
7.2 1 0
7.5 1 0
7.8 1 0
8.1 1 0
8.4 1 0
8.7 1 0
9 1 0
9.3 1 0
9.6 1 0
9.9 1 0
10.2 1 0
10.5 1 0
10.8 1 0
11.1 1 0
11.4 1 0
11.7 1 0
12 1 0
12.3 1 0
12.6 1 0
12.9 1 0
13.2 1 0
13.5 1 0
13.8 1 0
14.1 1 0
14.4 1 0
14.7 1 0
15 1 0
15.3 1 0
15.6 1 0
15.9 1 0
16.2 1 0
16.5 1 0
16.8 1 0
17.1 1 0
17.4 1 0
17.7 1 0
18 1 0
18.3 1 0
18.6 1 0
18.9 1 0
19.2 1 0
19.5 1 0
19.8 1 0
20.1 1 0
20.4 1 0
20.7 1 0
21 1 0
21.3 1 0
21.6 1 0
21.9 1 0
22.2 1 0
22.5 1 0
22.8 1 0
23.1 1 0
23.4 1 0
23.7 1 0
24 1 0
24.3 1 0
24.6 1 0
24.9 1 0
25.2 1 0
25.5 1 0
25.8 1 0
26.1 1 0
26.4 1 0
26.7 1 0
27 1 0
27.3 1 0
27.6 1 0
27.9 1 0
28.2 1 0
28.5 1 0
28.8 1 0
29.1 1 0
29.4 1 0
29.7 1 0
30 1 0
30.3 1 0
0 1.1 0
0.3 1.1 0
0.6 1.1 0
0.9 1.1 0
1.2 1.1 0
1.5 1.1 0
1.8 1.1 0
2.1 1.1 0
2.4 1.1 0
2.7 1.1 0
3 1.1 0
3.3 1.1 0
3.6 1.1 0
3.9 1.1 0
4.2 1.1 0
4.5 1.1 0
4.8 1.1 0
5.1 1.1 0
5.4 1.1 0
5.7 1.1 0
6 1.1 0
6.3 1.1 0
6.6 1.1 0
6.9 1.1 0
7.2 1.1 0
7.5 1.1 0
7.8 1.1 0
8.1 1.1 0
8.4 1.1 0
8.7 1.1 0
9 1.1 0
9.3 1.1 0
9.6 1.1 0
9.9 1.1 0
10.2 1.1 0
10.5 1.1 0
10.8 1.1 0
11.1 1.1 0
11.4 1.1 0
11.7 1.1 0
12 1.1 0
12.3 1.1 0
12.6 1.1 0
12.9 1.1 0
13.2 1.1 0
13.5 1.1 0
13.8 1.1 0
14.1 1.1 0
14.4 1.1 0
14.7 1.1 0
15 1.1 0
15.3 1.1 0
15.6 1.1 0
15.9 1.1 0
16.2 1.1 0
16.5 1.1 0
16.8 1.1 0
17.1 1.1 0
17.4 1.1 0
17.7 1.1 0
18 1.1 0
18.3 1.1 0
18.6 1.1 0
18.9 1.1 0
19.2 1.1 0
19.5 1.1 0
19.8 1.1 0
20.1 1.1 0
20.4 1.1 0
20.7 1.1 0
21 1.1 0
21.3 1.1 0
21.6 1.1 0
21.9 1.1 0
22.2 1.1 0
22.5 1.1 0
22.8 1.1 0
23.1 1.1 0
23.4 1.1 0
23.7 1.1 0
24 1.1 0
24.3 1.1 0
24.6 1.1 0
24.9 1.1 0
25.2 1.1 0
25.5 1.1 0
25.8 1.1 0
26.1 1.1 0
26.4 1.1 0
26.7 1.1 0
27 1.1 0
27.3 1.1 0
27.6 1.1 0
27.9 1.1 0
28.2 1.1 0
28.5 1.1 0
28.8 1.1 0
29.1 1.1 0
29.4 1.1 0
29.7 1.1 0
30 1.1 0
30.3 1.1 0

POINT_DATA 1224

VECTORS velocity double
LOOKUP_TABLE default
-1 0 0
-0.893473 0 0
-0.812474 0 0
-0.774507 0 0
-0.761437 0 0
-0.757915 0 0
-0.75715 0 0
-0.757016 0 0
-0.756998 0 0
-0.756997 0 0
-0.756997 0 0
-0.756998 0 0
-0.756998 0 0
-0.756998 0 0
-0.756998 0 0
-0.756998 0 0
-0.756998 0 0
-0.756999 0 0
-0.756999 0 0
-0.756999 0 0
-0.756999 0 0
-0.756999 0 0
-0.756999 0 0
-0.756999 0 0
-0.756999 0 0
-0.756999 0 0
-0.756999 0 0
-0.756999 0 0
-0.757 0 0
-0.757 0 0
-0.757 0 0
-0.757 0 0
-0.757 0 0
-0.757 0 0
-0.757 0 0
-0.757 0 0
-0.756999 0 0
-0.756999 0 0
-0.756999 0 0
-0.756999 0 0
-0.756999 0 0
-0.756999 0 0
-0.756999 0 0
-0.756999 0 0
-0.756999 0 0
-0.756999 0 0
-0.756999 0 0
-0.756998 0 0
-0.756998 0 0
-0.756998 0 0
-0.756998 0 0
-0.756998 0 0
-0.756997 0 0
-0.756997 0 0
-0.756997 0 0
-0.756997 0 0
-0.756996 0 0
-0.756996 0 0
-0.756996 0 0
-0.756996 0 0
-0.756995 0 0
-0.756995 0 0
-0.756995 0 0
-0.756994 0 0
-0.756994 0 0
-0.756994 0 0
-0.756993 0 0
-0.756993 0 0
-0.756993 0 0
-0.756992 0 0
-0.756992 0 0
-0.756992 0 0
-0.756991 0 0
-0.756991 0 0
-0.75699 0 0
-0.75699 0 0
-0.75699 0 0
-0.756989 0 0
-0.756989 0 0
-0.756988 0 0
-0.756988 0 0
-0.756987 0 0
-0.756987 0 0
-0.756987 0 0
-0.756986 0 0
-0.756986 0 0
-0.756985 0 0
-0.756985 0 0
-0.756984 0 0
-0.756984 0 0
-0.756983 0 0
-0.756983 0 0
-0.756982 0 0
-0.756982 0 0
-0.756982 0 0
-0.756983 0 0
-0.756988 0 0
-0.757034 0 0
-0.757086 0 0
-0.758798 0 0
-0.758798 0 0
-1 0 0
1 -0.035509 0
0.893473 0.035509 0
0.812474 0.0269996 0
0.774507 0.0126557 0
0.761437 0.00435668 0
0.757915 0.00117396 0
0.75715 0.000255175 0
0.757016 4.46829e-05 0
0.756998 5.89986e-06 0
0.756997 3.60609e-07 0
0.756997 -1.3787e-07 0
0.756998 -1.06105e-07 0
0.756998 -7.87603e-08 0
0.756998 -7.11331e-08 0
0.756998 -7.00429e-08 0
0.756998 -7.06026e-08 0
0.756998 -7.15903e-08 0
0.756999 -7.27453e-08 0
0.756999 -7.40165e-08 0
0.756999 -7.53934e-08 0
0.756999 -7.68731e-08 0
0.756999 -7.84535e-08 0
0.756999 -8.01328e-08 0
0.756999 -8.19101e-08 0
0.756999 -8.37839e-08 0
0.756999 -8.57529e-08 0
0.756999 -8.78135e-08 0
0.756999 -8.99622e-08 0
0.757 -9.21965e-08 0
0.757 -9.45139e-08 0
0.757 -9.69122e-08 0
0.757 -9.93891e-08 0
0.757 -1.01942e-07 0
0.757 -1.04569e-07 0
0.757 -1.07268e-07 0
0.757 -1.10034e-07 0
0.756999 -1.12868e-07 0
0.756999 -1.15768e-07 0
0.756999 -1.18732e-07 0
0.756999 -1.21753e-07 0
0.756999 -1.24825e-07 0
0.756999 -1.27945e-07 0
0.756999 -1.31113e-07 0
0.756999 -1.34326e-07 0
0.756999 -1.37581e-07 0
0.756999 -1.40878e-07 0
0.756999 -1.44215e-07 0
0.756998 -1.47587e-07 0
0.756998 -1.50974e-07 0
0.756998 -1.54428e-07 0
0.756998 -1.57931e-07 0
0.756998 -1.61481e-07 0
0.756997 -1.65063e-07 0
0.756997 -1.68633e-07 0
0.756997 -1.72175e-07 0
0.756997 -1.75709e-07 0
0.756996 -1.79244e-07 0
0.756996 -1.82784e-07 0
0.756996 -1.86323e-07 0
0.756996 -1.89852e-07 0
0.756995 -1.93365e-07 0
0.756995 -1.96861e-07 0
0.756995 -2.00339e-07 0
0.756994 -2.03798e-07 0
0.756994 -2.07235e-07 0
0.756994 -2.10647e-07 0
0.756993 -2.14031e-07 0
0.756993 -2.17384e-07 0
0.756993 -2.20702e-07 0
0.756992 -2.23982e-07 0
0.756992 -2.27221e-07 0
0.756992 -2.30415e-07 0
0.756991 -2.33562e-07 0
0.756991 -2.36658e-07 0
0.75699 -2.397e-07 0
0.75699 -2.42684e-07 0
0.75699 -2.45609e-07 0
0.756989 -2.4847e-07 0
0.756989 -2.51265e-07 0
0.756988 -2.53992e-07 0
0.756988 -2.56647e-07 0
0.756987 -2.59225e-07 0
0.756987 -2.61725e-07 0
0.756987 -2.64145e-07 0
0.756986 -2.6648e-07 0
0.756986 -2.6873e-07 0
0.756985 -2.70892e-07 0
0.756985 -2.72964e-07 0
0.756984 -2.74948e-07 0
0.756984 -2.76861e-07 0
0.756983 -2.78791e-07 0
0.756983 -2.81159e-07 0
0.756982 -2.86015e-07 0
0.756982 -3.03383e-07 0
0.756982 -3.79568e-07 0
0.756983 -7.81175e-07 0
0.756988 -2.16581e-06 0
0.757034 -1.58469e-05 0
0.757086 -1.75536e-05 0
0.758798 -0.000571222 0
0.758798 -0.00104205 0
1 -0.00104205 0
1 -0.0262282 0
1.02784 0.0262282 0
1.03703 0.0239372 0
1.03931 0.0118957 0
1.03967 0.00423577 0
1.03968 0.00117194 0
1.03966 0.000260202 0
1.03966 4.61273e-05 0
1.03966 5.9987e-06 0
1.03966 2.8081e-07 0
1.03966 -1.73806e-07 0
1.03966 -1.15575e-07 0
1.03966 -7.77528e-08 0
1.03966 -6.67454e-08 0
1.03966 -6.46918e-08 0
1.03966 -6.49716e-08 0
1.03966 -6.58541e-08 0
1.03966 -6.69502e-08 0
1.03966 -6.81791e-08 0
1.03966 -6.95244e-08 0
1.03966 -7.09818e-08 0
1.03966 -7.25491e-08 0
1.03966 -7.42244e-08 0
1.03966 -7.60062e-08 0
1.03966 -7.78925e-08 0
1.03966 -7.98816e-08 0
1.03966 -8.19719e-08 0
1.03966 -8.41614e-08 0
1.03966 -8.64465e-08 0
1.03966 -8.88233e-08 0
1.03966 -9.12891e-08 0
1.03966 -9.38417e-08 0
1.03966 -9.64788e-08 0
1.03966 -9.91979e-08 0
1.03966 -1.01996e-07 0
1.03966 -1.04871e-07 0
1.03966 -1.0782e-07 0
1.03966 -1.10841e-07 0
1.03966 -1.13928e-07 0
1.03966 -1.17078e-07 0
1.03966 -1.20289e-07 0
1.03966 -1.23559e-07 0
1.03966 -1.26885e-07 0
1.03966 -1.30264e-07 0
1.03966 -1.33692e-07 0
1.03966 -1.37167e-07 0
1.03966 -1.40683e-07 0
1.03966 -1.44236e-07 0
1.03965 -1.4783e-07 0
1.03965 -1.51463e-07 0
1.03965 -1.55124e-07 0
1.03965 -1.58808e-07 0
1.03965 -1.62507e-07 0
1.03965 -1.66215e-07 0
1.03965 -1.69939e-07 0
1.03965 -1.73682e-07 0
1.03965 -1.77438e-07 0
1.03965 -1.81201e-07 0
1.03965 -1.84965e-07 0
1.03965 -1.88726e-07 0
1.03965 -1.92483e-07 0
1.03965 -1.96232e-07 0
1.03965 -1.99971e-07 0
1.03965 -2.03696e-07 0
1.03965 -2.07402e-07 0
1.03965 -2.11086e-07 0
1.03965 -2.14744e-07 0
1.03965 -2.18374e-07 0
1.03965 -2.21971e-07 0
1.03965 -2.25532e-07 0
1.03965 -2.29054e-07 0
1.03965 -2.32532e-07 0
1.03965 -2.35964e-07 0
1.03965 -2.39347e-07 0
1.03965 -2.42676e-07 0
1.03965 -2.45949e-07 0
1.03965 -2.49161e-07 0
1.03965 -2.5231e-07 0
1.03965 -2.55393e-07 0
1.03965 -2.58405e-07 0
1.03965 -2.61345e-07 0
1.03964 -2.64207e-07 0
1.03964 -2.6699e-07 0
1.03964 -2.69691e-07 0
1.03964 -2.72307e-07 0
1.03964 -2.74834e-07 0
1.03964 -2.77271e-07 0
1.03964 -2.79616e-07 0
1.03964 -2.81873e-07 0
1.03964 -2.8407e-07 0
1.03964 -2.8634e-07 0
1.03964 -2.89328e-07 0
1.03964 -2.96138e-07 0
1.03964 -3.21818e-07 0
1.03964 -4.38495e-07 0
1.03964 -1.00763e-06 0
1.03964 -3.54881e-06 0
1.03965 -1.86477e-05 0
1.03978 -5.97041e-05 0
1.0397 -0.000546219 0
1.0397 -0.000983652 0
1 -0.000983652 0
1 -0.0158331 0
1.03119 0.0158331 0
1.05382 0.0163936 0
1.06327 0.00874415 0
1.06601 0.00332411 0
1.06656 0.000986585 0
1.06663 0.000237606 0
1.06663 4.68528e-05 0
1.06662 7.31396e-06 0
1.06662 7.39244e-07 0
1.06662 -4.83916e-08 0
1.06662 -7.49199e-08 0
1.06662 -5.46069e-08 0
1.06662 -4.68214e-08 0
1.06662 -4.54352e-08 0
1.06662 -4.60013e-08 0
1.06662 -4.71361e-08 0
1.06662 -4.84978e-08 0
1.06662 -5.00106e-08 0
1.06662 -5.1658e-08 0
1.06662 -5.34353e-08 0
1.06662 -5.53397e-08 0
1.06662 -5.73691e-08 0
1.06662 -5.95214e-08 0
1.06662 -6.17943e-08 0
1.06662 -6.41861e-08 0
1.06662 -6.66957e-08 0
1.06662 -6.93205e-08 0
1.06662 -7.20557e-08 0
1.06662 -7.48957e-08 0
1.06662 -7.78375e-08 0
1.06662 -8.08789e-08 0
1.06662 -8.40171e-08 0
1.06662 -8.72492e-08 0
1.06662 -9.05719e-08 0
1.06662 -9.39822e-08 0
1.06662 -9.74772e-08 0
1.06662 -1.01053e-07 0
1.06662 -1.04704e-07 0
1.06662 -1.08428e-07 0
1.06662 -1.12221e-07 0
1.06662 -1.1608e-07 0
1.06662 -1.20004e-07 0
1.06662 -1.23987e-07 0
1.06662 -1.28026e-07 0
1.06662 -1.32115e-07 0
1.06662 -1.36251e-07 0
1.06662 -1.40428e-07 0
1.06662 -1.4465e-07 0
1.06662 -1.48909e-07 0
1.06662 -1.53195e-07 0
1.06662 -1.57504e-07 0
1.06662 -1.61829e-07 0
1.06662 -1.66171e-07 0
1.06662 -1.70534e-07 0
1.06661 -1.74915e-07 0
1.06661 -1.79308e-07 0
1.06661 -1.83705e-07 0
1.06661 -1.88102e-07 0
1.06661 -1.92494e-07 0
1.06661 -1.96879e-07 0
1.06661 -2.01255e-07 0
1.06661 -2.05615e-07 0
1.06661 -2.09956e-07 0
1.06661 -2.14273e-07 0
1.06661 -2.18562e-07 0
1.06661 -2.22818e-07 0
1.06661 -2.27039e-07 0
1.06661 -2.31218e-07 0
1.06661 -2.35354e-07 0
1.06661 -2.39441e-07 0
1.06661 -2.43475e-07 0
1.06661 -2.47453e-07 0
1.06661 -2.51371e-07 0
1.06661 -2.55224e-07 0
1.06661 -2.59008e-07 0
1.06661 -2.6272e-07 0
1.06661 -2.66356e-07 0
1.06661 -2.69912e-07 0
1.06661 -2.73384e-07 0
1.06661 -2.76768e-07 0
1.06661 -2.80061e-07 0
1.06661 -2.83259e-07 0
1.06661 -2.86359e-07 0
1.06661 -2.89357e-07 0
1.06661 -2.9225e-07 0
1.06661 -2.95036e-07 0
1.0666 -2.97713e-07 0
1.0666 -3.00285e-07 0
1.0666 -3.02778e-07 0
1.0666 -3.05322e-07 0
1.0666 -3.08532e-07 0
1.0666 -3.15354e-07 0
1.0666 -3.39991e-07 0
1.0666 -4.50997e-07 0
1.0666 -9.79714e-07 0
1.0666 -3.47468e-06 0
1.06659 -1.59289e-05 0
1.06661 -6.42292e-05 0
1.06607 -0.000367054 0
1.06607 -0.000673381 0
1 -0.000673381 0
1 -0.00740248 0
1.02529 0.00740248 0
1.04973 0.00824711 0
1.06218 0.00459546 0
1.0667 0.00181702 0
1.06797 0.000561322 0
1.06826 0.000141221 0
1.06832 2.93448e-05 0
1.06832 4.94417e-06 0
1.06832 6.00232e-07 0
1.06832 8.15086e-09 0
1.06832 -3.49209e-08 0
1.06832 -2.81396e-08 0
1.06832 -2.47674e-08 0
1.06832 -2.4649e-08 0
1.06832 -2.56961e-08 0
1.06832 -2.71535e-08 0
1.06832 -2.88215e-08 0
1.06832 -3.06531e-08 0
1.06832 -3.26371e-08 0
1.06832 -3.47694e-08 0
1.06832 -3.7047e-08 0
1.06832 -3.94672e-08 0
1.06832 -4.20276e-08 0
1.06832 -4.47255e-08 0
1.06832 -4.75595e-08 0
1.06832 -5.05286e-08 0
1.06832 -5.36297e-08 0
1.06832 -5.68566e-08 0
1.06832 -6.02016e-08 0
1.06832 -6.36616e-08 0
1.06832 -6.72344e-08 0
1.06832 -7.09168e-08 0
1.06832 -7.47054e-08 0
1.06832 -7.85964e-08 0
1.06832 -8.25863e-08 0
1.06832 -8.66716e-08 0
1.06832 -9.08481e-08 0
1.06832 -9.51103e-08 0
1.06832 -9.94535e-08 0
1.06832 -1.03874e-07 0
1.06832 -1.0837e-07 0
1.06832 -1.12937e-07 0
1.06832 -1.1757e-07 0
1.06832 -1.22264e-07 0
1.06832 -1.27015e-07 0
1.06832 -1.31816e-07 0
1.06832 -1.36664e-07 0
1.06832 -1.41558e-07 0
1.06832 -1.46491e-07 0
1.06832 -1.51456e-07 0
1.06832 -1.5645e-07 0
1.06832 -1.61466e-07 0
1.06832 -1.66502e-07 0
1.06832 -1.71556e-07 0
1.06832 -1.76623e-07 0
1.06832 -1.81698e-07 0
1.06832 -1.86775e-07 0
1.06832 -1.91848e-07 0
1.06832 -1.96914e-07 0
1.06832 -2.0197e-07 0
1.06832 -2.0701e-07 0
1.06831 -2.12029e-07 0
1.06831 -2.17023e-07 0
1.06831 -2.21986e-07 0
1.06831 -2.26913e-07 0
1.06831 -2.31801e-07 0
1.06831 -2.36644e-07 0
1.06831 -2.41438e-07 0
1.06831 -2.46178e-07 0
1.06831 -2.50859e-07 0
1.06831 -2.55477e-07 0
1.06831 -2.60027e-07 0
1.06831 -2.64505e-07 0
1.06831 -2.68905e-07 0
1.06831 -2.73224e-07 0
1.06831 -2.77457e-07 0
1.06831 -2.816e-07 0
1.06831 -2.85647e-07 0
1.06831 -2.89596e-07 0
1.06831 -2.9344e-07 0
1.06831 -2.97177e-07 0
1.06831 -3.00803e-07 0
1.06831 -3.04313e-07 0
1.06831 -3.07704e-07 0
1.06831 -3.10971e-07 0
1.06831 -3.14113e-07 0
1.06831 -3.17126e-07 0
1.06831 -3.20013e-07 0
1.06831 -3.2279e-07 0
1.06831 -3.25538e-07 0
1.06831 -3.28634e-07 0
1.0683 -3.33853e-07 0
1.0683 -3.4968e-07 0
1.0683 -4.17097e-07 0
1.0683 -7.32975e-07 0
1.0683 -2.23869e-06 0
1.06828 -9.31059e-06 0
1.0682 -3.92203e-05 0
1.06765 -0.000181887 0
1.06765 -0.000337745 0
1 -0.000337745 0
1 -1.38519e-07 0
1.02221 1.38519e-07 0
1.04695 -1.15034e-08 0
1.06074 -3.75227e-07 0
1.06619 -4.82899e-07 0
1.06787 -3.58431e-07 0
1.0683 -1.9542e-07 0
1.06839 -8.66322e-08 0
1.0684 -3.28978e-08 0
1.0684 -1.0854e-08 0
1.0684 -3.10395e-09 0
1.0684 -1.11633e-09 0
1.0684 -1.29229e-09 0
1.0684 -2.29608e-09 0
1.0684 -3.67613e-09 0
1.0684 -5.28987e-09 0
1.0684 -7.09404e-09 0
1.0684 -9.07531e-09 0
1.0684 -1.12288e-08 0
1.0684 -1.35516e-08 0
1.0684 -1.60411e-08 0
1.0684 -1.86942e-08 0
1.0684 -2.15074e-08 0
1.0684 -2.44782e-08 0
1.0684 -2.76032e-08 0
1.0684 -3.08816e-08 0
1.0684 -3.43127e-08 0
1.0684 -3.7893e-08 0
1.0684 -4.16146e-08 0
1.0684 -4.54671e-08 0
1.0684 -4.94477e-08 0
1.0684 -5.35543e-08 0
1.0684 -5.77835e-08 0
1.0684 -6.21313e-08 0
1.0684 -6.65933e-08 0
1.0684 -7.11653e-08 0
1.0684 -7.58437e-08 0
1.0684 -8.06238e-08 0
1.0684 -8.54996e-08 0
1.0684 -9.04654e-08 0
1.0684 -9.55168e-08 0
1.0684 -1.00651e-07 0
1.0684 -1.05864e-07 0
1.0684 -1.1115e-07 0
1.0684 -1.16503e-07 0
1.0684 -1.21917e-07 0
1.0684 -1.27387e-07 0
1.0684 -1.32909e-07 0
1.0684 -1.38477e-07 0
1.0684 -1.44088e-07 0
1.0684 -1.49736e-07 0
1.0684 -1.55418e-07 0
1.0684 -1.61129e-07 0
1.0684 -1.66863e-07 0
1.0684 -1.72612e-07 0
1.0684 -1.78369e-07 0
1.0684 -1.84129e-07 0
1.0684 -1.89888e-07 0
1.0684 -1.95641e-07 0
1.06839 -2.01383e-07 0
1.06839 -2.07111e-07 0
1.06839 -2.12818e-07 0
1.06839 -2.18498e-07 0
1.06839 -2.24147e-07 0
1.06839 -2.29758e-07 0
1.06839 -2.35326e-07 0
1.06839 -2.40847e-07 0
1.06839 -2.46315e-07 0
1.06839 -2.51724e-07 0
1.06839 -2.5707e-07 0
1.06839 -2.62347e-07 0
1.06839 -2.6755e-07 0
1.06839 -2.72674e-07 0
1.06839 -2.77713e-07 0
1.06839 -2.82663e-07 0
1.06839 -2.87517e-07 0
1.06839 -2.92272e-07 0
1.06839 -2.96922e-07 0
1.06839 -3.01462e-07 0
1.06839 -3.05888e-07 0
1.06839 -3.10194e-07 0
1.06839 -3.14376e-07 0
1.06839 -3.1843e-07 0
1.06839 -3.22351e-07 0
1.06839 -3.26134e-07 0
1.06839 -3.29776e-07 0
1.06839 -3.33273e-07 0
1.06839 -3.36622e-07 0
1.06839 -3.39822e-07 0
1.06839 -3.42873e-07 0
1.06838 -3.45783e-07 0
1.06838 -3.48567e-07 0
1.06838 -3.51236e-07 0
1.06838 -3.53701e-07 0
1.06838 -3.55406e-07 0
1.06838 -3.56187e-07 0
1.06838 -3.57213e-07 0
1.06835 -3.58174e-07 0
1.06823 -3.58304e-07 0
1.06769 -3.56299e-07 0
1.06769 -3.51008e-07 0
1 -3.51008e-07 0
1 0.00740222 0
1.02221 -0.00740222 0
1.04695 -0.00824719 0
1.06074 -0.00459622 0
1.06619 -0.00181797 0
1.06787 -0.000562011 0
1.0683 -0.000141592 0
1.06839 -2.95075e-05 0
1.0684 -5.00536e-06 0
1.0684 -6.20154e-07 0
1.0684 -1.37084e-08 0
1.0684 3.29058e-08 0
1.0684 2.56194e-08 0
1.0684 2.0189e-08 0
1.0684 1.72947e-08 0
1.0684 1.51096e-08 0
1.0684 1.29574e-08 0
1.0684 1.06624e-08 0
1.0684 8.187e-09 0
1.0684 5.52519e-09 0
1.0684 2.67838e-09 0
1.0684 -3.50157e-10 0
1.0684 -3.55627e-09 0
1.0684 -6.93753e-09 0
1.0684 -1.04895e-08 0
1.0684 -1.42118e-08 0
1.0684 -1.81048e-08 0
1.0684 -2.21647e-08 0
1.0684 -2.63818e-08 0
1.0684 -3.07415e-08 0
1.0684 -3.52425e-08 0
1.0684 -3.98829e-08 0
1.0684 -4.46587e-08 0
1.0684 -4.95656e-08 0
1.0684 -5.45985e-08 0
1.0684 -5.97524e-08 0
1.0684 -6.50238e-08 0
1.0684 -7.04076e-08 0
1.0684 -7.58969e-08 0
1.0684 -8.14851e-08 0
1.0684 -8.7167e-08 0
1.0684 -9.29392e-08 0
1.0684 -9.87983e-08 0
1.0684 -1.04737e-07 0
1.0684 -1.10749e-07 0
1.0684 -1.16826e-07 0
1.0684 -1.22965e-07 0
1.0684 -1.2916e-07 0
1.0684 -1.35403e-07 0
1.0684 -1.41691e-07 0
1.0684 -1.48021e-07 0
1.0684 -1.54392e-07 0
1.0684 -1.60798e-07 0
1.0684 -1.6723e-07 0
1.0684 -1.73674e-07 0
1.0684 -1.8012e-07 0
1.0684 -1.86565e-07 0
1.0684 -1.93006e-07 0
1.0684 -1.99438e-07 0
1.06839 -2.05856e-07 0
1.06839 -2.12256e-07 0
1.06839 -2.1863e-07 0
1.06839 -2.24971e-07 0
1.06839 -2.31274e-07 0
1.06839 -2.37533e-07 0
1.06839 -2.43743e-07 0
1.06839 -2.49896e-07 0
1.06839 -2.55989e-07 0
1.06839 -2.62014e-07 0
1.06839 -2.67965e-07 0
1.06839 -2.73838e-07 0
1.06839 -2.79626e-07 0
1.06839 -2.85323e-07 0
1.06839 -2.90923e-07 0
1.06839 -2.96421e-07 0
1.06839 -3.01811e-07 0
1.06839 -3.07088e-07 0
1.06839 -3.12245e-07 0
1.06839 -3.17278e-07 0
1.06839 -3.22181e-07 0
1.06839 -3.26948e-07 0
1.06839 -3.31575e-07 0
1.06839 -3.36056e-07 0
1.06839 -3.40387e-07 0
1.06839 -3.44563e-07 0
1.06839 -3.48579e-07 0
1.06839 -3.52432e-07 0
1.06839 -3.56116e-07 0
1.06839 -3.59627e-07 0
1.06839 -3.6295e-07 0
1.06838 -3.6602e-07 0
1.06838 -3.68491e-07 0
1.06838 -3.6862e-07 0
1.06838 -3.57784e-07 0
1.06838 -2.93801e-07 0
1.06838 2.06428e-08 0
1.06838 1.52428e-06 0
1.06835 8.59415e-06 0
1.06823 3.85035e-05 0
1.06769 0.000181174 0
1.06769 0.000337043 0
1 0.000337043 0
1 0.0158329 0
1.02529 -0.0158329 0
1.04973 -0.0163938 0
1.06218 -0.00874495 0
1.0667 -0.00332499 0
1.06797 -0.000987186 0
1.06826 -0.000237916 0
1.06832 -4.69844e-05 0
1.06832 -7.36177e-06 0
1.06832 -7.54039e-07 0
1.06832 4.46656e-08 0
1.06832 7.34968e-08 0
1.06832 5.22433e-08 0
1.06832 4.22552e-08 0
1.06832 3.80468e-08 0
1.06832 3.53657e-08 0
1.06832 3.28851e-08 0
1.06832 3.0281e-08 0
1.06832 2.74846e-08 0
1.06832 2.44842e-08 0
1.06832 2.12804e-08 0
1.06832 1.78768e-08 0
1.06832 1.42785e-08 0
1.06832 1.04877e-08 0
1.06832 6.5107e-09 0
1.06832 2.34691e-09 0
1.06832 -2.00592e-09 0
1.06832 -6.54404e-09 0
1.06832 -1.12558e-08 0
1.06832 -1.61209e-08 0
1.06832 -2.11404e-08 0
1.06832 -2.63128e-08 0
1.06832 -3.16336e-08 0
1.06832 -3.70977e-08 0
1.06832 -4.26997e-08 0
1.06832 -4.84334e-08 0
1.06832 -5.42956e-08 0
1.06832 -6.0281e-08 0
1.06832 -6.63817e-08 0
1.06832 -7.259e-08 0
1.06832 -7.88997e-08 0
1.06832 -8.53074e-08 0
1.06832 -9.18099e-08 0
1.06832 -9.83995e-08 0
1.06832 -1.05067e-07 0
1.06832 -1.11805e-07 0
1.06832 -1.18609e-07 0
1.06832 -1.25475e-07 0
1.06832 -1.3239e-07 0
1.06832 -1.3935e-07 0
1.06832 -1.46359e-07 0
1.06832 -1.53413e-07 0
1.06832 -1.6051e-07 0
1.06832 -1.67635e-07 0
1.06832 -1.7477e-07 0
1.06832 -1.81901e-07 0
1.06832 -1.89028e-07 0
1.06832 -1.96146e-07 0
1.06832 -2.03254e-07 0
1.06832 -2.10345e-07 0
1.06832 -2.17413e-07 0
1.06832 -2.24451e-07 0
1.06831 -2.3145e-07 0
1.06831 -2.38405e-07 0
1.06831 -2.45309e-07 0
1.06831 -2.52155e-07 0
1.06831 -2.58939e-07 0
1.06831 -2.65653e-07 0
1.06831 -2.7229e-07 0
1.06831 -2.78844e-07 0
1.06831 -2.8531e-07 0
1.06831 -2.91679e-07 0
1.06831 -2.97946e-07 0
1.06831 -3.04105e-07 0
1.06831 -3.10149e-07 0
1.06831 -3.16071e-07 0
1.06831 -3.21867e-07 0
1.06831 -3.27529e-07 0
1.06831 -3.33051e-07 0
1.06831 -3.38428e-07 0
1.06831 -3.43654e-07 0
1.06831 -3.48723e-07 0
1.06831 -3.5363e-07 0
1.06831 -3.58369e-07 0
1.06831 -3.62935e-07 0
1.06831 -3.67323e-07 0
1.06831 -3.71528e-07 0
1.06831 -3.75545e-07 0
1.06831 -3.79367e-07 0
1.06831 -3.82968e-07 0
1.06831 -3.86233e-07 0
1.06831 -3.88583e-07 0
1.0683 -3.87133e-07 0
1.0683 -3.67694e-07 0
1.0683 -2.60331e-07 0
1.0683 2.67347e-07 0
1.0683 2.7602e-06 0
1.06828 1.52121e-05 0
1.0682 6.35119e-05 0
1.06765 0.00036634 0