# vtk DataFile Version 2.0
FlowField
ASCII
DATASET STRUCTURED_GRID
DIMENSIONS 102 1 12 
POINTS 1224 double
0 0 0
0.4 0 0
0.8 0 0
1.2 0 0
1.6 0 0
2 0 0
2.4 0 0
2.8 0 0
3.2 0 0
3.6 0 0
4 0 0
4.4 0 0
4.8 0 0
5.2 0 0
5.6 0 0
6 0 0
6.4 0 0
6.8 0 0
7.2 0 0
7.6 0 0
8 0 0
8.4 0 0
8.8 0 0
9.2 0 0
9.6 0 0
10 0 0
10.4 0 0
10.8 0 0
11.2 0 0
11.6 0 0
12 0 0
12.4 0 0
12.8 0 0
13.2 0 0
13.6 0 0
14 0 0
14.4 0 0
14.8 0 0
15.2 0 0
15.6 0 0
16 0 0
16.4 0 0
16.8 0 0
17.2 0 0
17.6 0 0
18 0 0
18.4 0 0
18.8 0 0
19.2 0 0
19.6 0 0
20 0 0
20.4 0 0
20.8 0 0
21.2 0 0
21.6 0 0
22 0 0
22.4 0 0
22.8 0 0
23.2 0 0
23.6 0 0
24 0 0
24.4 0 0
24.8 0 0
25.2 0 0
25.6 0 0
26 0 0
26.4 0 0
26.8 0 0
27.2 0 0
27.6 0 0
28 0 0
28.4 0 0
28.8 0 0
29.2 0 0
29.6 0 0
30 0 0
30.4 0 0
30.8 0 0
31.2 0 0
31.6 0 0
32 0 0
32.4 0 0
32.8 0 0
33.2 0 0
33.6 0 0
34 0 0
34.4 0 0
34.8 0 0
35.2 0 0
35.6 0 0
36 0 0
36.4 0 0
36.8 0 0
37.2 0 0
37.6 0 0
38 0 0
38.4 0 0
38.8 0 0
39.2 0 0
39.6 0 0
40 0 0
40.4 0 0
0 0.1 0
0.4 0.1 0
0.8 0.1 0
1.2 0.1 0
1.6 0.1 0
2 0.1 0
2.4 0.1 0
2.8 0.1 0
3.2 0.1 0
3.6 0.1 0
4 0.1 0
4.4 0.1 0
4.8 0.1 0
5.2 0.1 0
5.6 0.1 0
6 0.1 0
6.4 0.1 0
6.8 0.1 0
7.2 0.1 0
7.6 0.1 0
8 0.1 0
8.4 0.1 0
8.8 0.1 0
9.2 0.1 0
9.6 0.1 0
10 0.1 0
10.4 0.1 0
10.8 0.1 0
11.2 0.1 0
11.6 0.1 0
12 0.1 0
12.4 0.1 0
12.8 0.1 0
13.2 0.1 0
13.6 0.1 0
14 0.1 0
14.4 0.1 0
14.8 0.1 0
15.2 0.1 0
15.6 0.1 0
16 0.1 0
16.4 0.1 0
16.8 0.1 0
17.2 0.1 0
17.6 0.1 0
18 0.1 0
18.4 0.1 0
18.8 0.1 0
19.2 0.1 0
19.6 0.1 0
20 0.1 0
20.4 0.1 0
20.8 0.1 0
21.2 0.1 0
21.6 0.1 0
22 0.1 0
22.4 0.1 0
22.8 0.1 0
23.2 0.1 0
23.6 0.1 0
24 0.1 0
24.4 0.1 0
24.8 0.1 0
25.2 0.1 0
25.6 0.1 0
26 0.1 0
26.4 0.1 0
26.8 0.1 0
27.2 0.1 0
27.6 0.1 0
28 0.1 0
28.4 0.1 0
28.8 0.1 0
29.2 0.1 0
29.6 0.1 0
30 0.1 0
30.4 0.1 0
30.8 0.1 0
31.2 0.1 0
31.6 0.1 0
32 0.1 0
32.4 0.1 0
32.8 0.1 0
33.2 0.1 0
33.6 0.1 0
34 0.1 0
34.4 0.1 0
34.8 0.1 0
35.2 0.1 0
35.6 0.1 0
36 0.1 0
36.4 0.1 0
36.8 0.1 0
37.2 0.1 0
37.6 0.1 0
38 0.1 0
38.4 0.1 0
38.8 0.1 0
39.2 0.1 0
39.6 0.1 0
40 0.1 0
40.4 0.1 0
0 0.2 0
0.4 0.2 0
0.8 0.2 0
1.2 0.2 0
1.6 0.2 0
2 0.2 0
2.4 0.2 0
2.8 0.2 0
3.2 0.2 0
3.6 0.2 0
4 0.2 0
4.4 0.2 0
4.8 0.2 0
5.2 0.2 0
5.6 0.2 0
6 0.2 0
6.4 0.2 0
6.8 0.2 0
7.2 0.2 0
7.6 0.2 0
8 0.2 0
8.4 0.2 0
8.8 0.2 0
9.2 0.2 0
9.6 0.2 0
10 0.2 0
10.4 0.2 0
10.8 0.2 0
11.2 0.2 0
11.6 0.2 0
12 0.2 0
12.4 0.2 0
12.8 0.2 0
13.2 0.2 0
13.6 0.2 0
14 0.2 0
14.4 0.2 0
14.8 0.2 0
15.2 0.2 0
15.6 0.2 0
16 0.2 0
16.4 0.2 0
16.8 0.2 0
17.2 0.2 0
17.6 0.2 0
18 0.2 0
18.4 0.2 0
18.8 0.2 0
19.2 0.2 0
19.6 0.2 0
20 0.2 0
20.4 0.2 0
20.8 0.2 0
21.2 0.2 0
21.6 0.2 0
22 0.2 0
22.4 0.2 0
22.8 0.2 0
23.2 0.2 0
23.6 0.2 0
24 0.2 0
24.4 0.2 0
24.8 0.2 0
25.2 0.2 0
25.6 0.2 0
26 0.2 0
26.4 0.2 0
26.8 0.2 0
27.2 0.2 0
27.6 0.2 0
28 0.2 0
28.4 0.2 0
28.8 0.2 0
29.2 0.2 0
29.6 0.2 0
30 0.2 0
30.4 0.2 0
30.8 0.2 0
31.2 0.2 0
31.6 0.2 0
32 0.2 0
32.4 0.2 0
32.8 0.2 0
33.2 0.2 0
33.6 0.2 0
34 0.2 0
34.4 0.2 0
34.8 0.2 0
35.2 0.2 0
35.6 0.2 0
36 0.2 0
36.4 0.2 0
36.8 0.2 0
37.2 0.2 0
37.6 0.2 0
38 0.2 0
38.4 0.2 0
38.8 0.2 0
39.2 0.2 0
39.6 0.2 0
40 0.2 0
40.4 0.2 0
0 0.3 0
0.4 0.3 0
0.8 0.3 0
1.2 0.3 0
1.6 0.3 0
2 0.3 0
2.4 0.3 0
2.8 0.3 0
3.2 0.3 0
3.6 0.3 0
4 0.3 0
4.4 0.3 0
4.8 0.3 0
5.2 0.3 0
5.6 0.3 0
6 0.3 0
6.4 0.3 0
6.8 0.3 0
7.2 0.3 0
7.6 0.3 0
8 0.3 0
8.4 0.3 0
8.8 0.3 0
9.2 0.3 0
9.6 0.3 0
10 0.3 0
10.4 0.3 0
10.8 0.3 0
11.2 0.3 0
11.6 0.3 0
12 0.3 0
12.4 0.3 0
12.8 0.3 0
13.2 0.3 0
13.6 0.3 0
14 0.3 0
14.4 0.3 0
14.8 0.3 0
15.2 0.3 0
15.6 0.3 0
16 0.3 0
16.4 0.3 0
16.8 0.3 0
17.2 0.3 0
17.6 0.3 0
18 0.3 0
18.4 0.3 0
18.8 0.3 0
19.2 0.3 0
19.6 0.3 0
20 0.3 0
20.4 0.3 0
20.8 0.3 0
21.2 0.3 0
21.6 0.3 0
22 0.3 0
22.4 0.3 0
22.8 0.3 0
23.2 0.3 0
23.6 0.3 0
24 0.3 0
24.4 0.3 0
24.8 0.3 0
25.2 0.3 0
25.6 0.3 0
26 0.3 0
26.4 0.3 0
26.8 0.3 0
27.2 0.3 0
27.6 0.3 0
28 0.3 0
28.4 0.3 0
28.8 0.3 0
29.2 0.3 0
29.6 0.3 0
30 0.3 0
30.4 0.3 0
30.8 0.3 0
31.2 0.3 0
31.6 0.3 0
32 0.3 0
32.4 0.3 0
32.8 0.3 0
33.2 0.3 0
33.6 0.3 0
34 0.3 0
34.4 0.3 0
34.8 0.3 0
35.2 0.3 0
35.6 0.3 0
36 0.3 0
36.4 0.3 0
36.8 0.3 0
37.2 0.3 0
37.6 0.3 0
38 0.3 0
38.4 0.3 0
38.8 0.3 0
39.2 0.3 0
39.6 0.3 0
40 0.3 0
40.4 0.3 0
0 0.4 0
0.4 0.4 0
0.8 0.4 0
1.2 0.4 0
1.6 0.4 0
2 0.4 0
2.4 0.4 0
2.8 0.4 0
3.2 0.4 0
3.6 0.4 0
4 0.4 0
4.4 0.4 0
4.8 0.4 0
5.2 0.4 0
5.6 0.4 0
6 0.4 0
6.4 0.4 0
6.8 0.4 0
7.2 0.4 0
7.6 0.4 0
8 0.4 0
8.4 0.4 0
8.8 0.4 0
9.2 0.4 0
9.6 0.4 0
10 0.4 0
10.4 0.4 0
10.8 0.4 0
11.2 0.4 0
11.6 0.4 0
12 0.4 0
12.4 0.4 0
12.8 0.4 0
13.2 0.4 0
13.6 0.4 0
14 0.4 0
14.4 0.4 0
14.8 0.4 0
15.2 0.4 0
15.6 0.4 0
16 0.4 0
16.4 0.4 0
16.8 0.4 0
17.2 0.4 0
17.6 0.4 0
18 0.4 0
18.4 0.4 0
18.8 0.4 0
19.2 0.4 0
19.6 0.4 0
20 0.4 0
20.4 0.4 0
20.8 0.4 0
21.2 0.4 0
21.6 0.4 0
22 0.4 0
22.4 0.4 0
22.8 0.4 0
23.2 0.4 0
23.6 0.4 0
24 0.4 0
24.4 0.4 0
24.8 0.4 0
25.2 0.4 0
25.6 0.4 0
26 0.4 0
26.4 0.4 0
26.8 0.4 0
27.2 0.4 0
27.6 0.4 0
28 0.4 0
28.4 0.4 0
28.8 0.4 0
29.2 0.4 0
29.6 0.4 0
30 0.4 0
30.4 0.4 0
30.8 0.4 0
31.2 0.4 0
31.6 0.4 0
32 0.4 0
32.4 0.4 0
32.8 0.4 0
33.2 0.4 0
33.6 0.4 0
34 0.4 0
34.4 0.4 0
34.8 0.4 0
35.2 0.4 0
35.6 0.4 0
36 0.4 0
36.4 0.4 0
36.8 0.4 0
37.2 0.4 0
37.6 0.4 0
38 0.4 0
38.4 0.4 0
38.8 0.4 0
39.2 0.4 0
39.6 0.4 0
40 0.4 0
40.4 0.4 0
0 0.5 0
0.4 0.5 0
0.8 0.5 0
1.2 0.5 0
1.6 0.5 0
2 0.5 0
2.4 0.5 0
2.8 0.5 0
3.2 0.5 0
3.6 0.5 0
4 0.5 0
4.4 0.5 0
4.8 0.5 0
5.2 0.5 0
5.6 0.5 0
6 0.5 0
6.4 0.5 0
6.8 0.5 0
7.2 0.5 0
7.6 0.5 0
8 0.5 0
8.4 0.5 0
8.8 0.5 0
9.2 0.5 0
9.6 0.5 0
10 0.5 0
10.4 0.5 0
10.8 0.5 0
11.2 0.5 0
11.6 0.5 0
12 0.5 0
12.4 0.5 0
12.8 0.5 0
13.2 0.5 0
13.6 0.5 0
14 0.5 0
14.4 0.5 0
14.8 0.5 0
15.2 0.5 0
15.6 0.5 0
16 0.5 0
16.4 0.5 0
16.8 0.5 0
17.2 0.5 0
17.6 0.5 0
18 0.5 0
18.4 0.5 0
18.8 0.5 0
19.2 0.5 0
19.6 0.5 0
20 0.5 0
20.4 0.5 0
20.8 0.5 0
21.2 0.5 0
21.6 0.5 0
22 0.5 0
22.4 0.5 0
22.8 0.5 0
23.2 0.5 0
23.6 0.5 0
24 0.5 0
24.4 0.5 0
24.8 0.5 0
25.2 0.5 0
25.6 0.5 0
26 0.5 0
26.4 0.5 0
26.8 0.5 0
27.2 0.5 0
27.6 0.5 0
28 0.5 0
28.4 0.5 0
28.8 0.5 0
29.2 0.5 0
29.6 0.5 0
30 0.5 0
30.4 0.5 0
30.8 0.5 0
31.2 0.5 0
31.6 0.5 0
32 0.5 0
32.4 0.5 0
32.8 0.5 0
33.2 0.5 0
33.6 0.5 0
34 0.5 0
34.4 0.5 0
34.8 0.5 0
35.2 0.5 0
35.6 0.5 0
36 0.5 0
36.4 0.5 0
36.8 0.5 0
37.2 0.5 0
37.6 0.5 0
38 0.5 0
38.4 0.5 0
38.8 0.5 0
39.2 0.5 0
39.6 0.5 0
40 0.5 0
40.4 0.5 0
0 0.6 0
0.4 0.6 0
0.8 0.6 0
1.2 0.6 0
1.6 0.6 0
2 0.6 0
2.4 0.6 0
2.8 0.6 0
3.2 0.6 0
3.6 0.6 0
4 0.6 0
4.4 0.6 0
4.8 0.6 0
5.2 0.6 0
5.6 0.6 0
6 0.6 0
6.4 0.6 0
6.8 0.6 0
7.2 0.6 0
7.6 0.6 0
8 0.6 0
8.4 0.6 0
8.8 0.6 0
9.2 0.6 0
9.6 0.6 0
10 0.6 0
10.4 0.6 0
10.8 0.6 0
11.2 0.6 0
11.6 0.6 0
12 0.6 0
12.4 0.6 0
12.8 0.6 0
13.2 0.6 0
13.6 0.6 0
14 0.6 0
14.4 0.6 0
14.8 0.6 0
15.2 0.6 0
15.6 0.6 0
16 0.6 0
16.4 0.6 0
16.8 0.6 0
17.2 0.6 0
17.6 0.6 0
18 0.6 0
18.4 0.6 0
18.8 0.6 0
19.2 0.6 0
19.6 0.6 0
20 0.6 0
20.4 0.6 0
20.8 0.6 0
21.2 0.6 0
21.6 0.6 0
22 0.6 0
22.4 0.6 0
22.8 0.6 0
23.2 0.6 0
23.6 0.6 0
24 0.6 0
24.4 0.6 0
24.8 0.6 0
25.2 0.6 0
25.6 0.6 0
26 0.6 0
26.4 0.6 0
26.8 0.6 0
27.2 0.6 0
27.6 0.6 0
28 0.6 0
28.4 0.6 0
28.8 0.6 0
29.2 0.6 0
29.6 0.6 0
30 0.6 0
30.4 0.6 0
30.8 0.6 0
31.2 0.6 0
31.6 0.6 0
32 0.6 0
32.4 0.6 0
32.8 0.6 0
33.2 0.6 0
33.6 0.6 0
34 0.6 0
34.4 0.6 0
34.8 0.6 0
35.2 0.6 0
35.6 0.6 0
36 0.6 0
36.4 0.6 0
36.8 0.6 0
37.2 0.6 0
37.6 0.6 0
38 0.6 0
38.4 0.6 0
38.8 0.6 0
39.2 0.6 0
39.6 0.6 0
40 0.6 0
40.4 0.6 0
0 0.7 0
0.4 0.7 0
0.8 0.7 0
1.2 0.7 0
1.6 0.7 0
2 0.7 0
2.4 0.7 0
2.8 0.7 0
3.2 0.7 0
3.6 0.7 0
4 0.7 0
4.4 0.7 0
4.8 0.7 0
5.2 0.7 0
5.6 0.7 0
6 0.7 0
6.4 0.7 0
6.8 0.7 0
7.2 0.7 0
7.6 0.7 0
8 0.7 0
8.4 0.7 0
8.8 0.7 0
9.2 0.7 0
9.6 0.7 0
10 0.7 0
10.4 0.7 0
10.8 0.7 0
11.2 0.7 0
11.6 0.7 0
12 0.7 0
12.4 0.7 0
12.8 0.7 0
13.2 0.7 0
13.6 0.7 0
14 0.7 0
14.4 0.7 0
14.8 0.7 0
15.2 0.7 0
15.6 0.7 0
16 0.7 0
16.4 0.7 0
16.8 0.7 0
17.2 0.7 0
17.6 0.7 0
18 0.7 0
18.4 0.7 0
18.8 0.7 0
19.2 0.7 0
19.6 0.7 0
20 0.7 0
20.4 0.7 0
20.8 0.7 0
21.2 0.7 0
21.6 0.7 0
22 0.7 0
22.4 0.7 0
22.8 0.7 0
23.2 0.7 0
23.6 0.7 0
24 0.7 0
24.4 0.7 0
24.8 0.7 0
25.2 0.7 0
25.6 0.7 0
26 0.7 0
26.4 0.7 0
26.8 0.7 0
27.2 0.7 0
27.6 0.7 0
28 0.7 0
28.4 0.7 0
28.8 0.7 0
29.2 0.7 0
29.6 0.7 0
30 0.7 0
30.4 0.7 0
30.8 0.7 0
31.2 0.7 0
31.6 0.7 0
32 0.7 0
32.4 0.7 0
32.8 0.7 0
33.2 0.7 0
33.6 0.7 0
34 0.7 0
34.4 0.7 0
34.8 0.7 0
35.2 0.7 0
35.6 0.7 0
36 0.7 0
36.4 0.7 0
36.8 0.7 0
37.2 0.7 0
37.6 0.7 0
38 0.7 0
38.4 0.7 0
38.8 0.7 0
39.2 0.7 0
39.6 0.7 0
40 0.7 0
40.4 0.7 0
0 0.8 0
0.4 0.8 0
0.8 0.8 0
1.2 0.8 0
1.6 0.8 0
2 0.8 0
2.4 0.8 0
2.8 0.8 0
3.2 0.8 0
3.6 0.8 0
4 0.8 0
4.4 0.8 0
4.8 0.8 0
5.2 0.8 0
5.6 0.8 0
6 0.8 0
6.4 0.8 0
6.8 0.8 0
7.2 0.8 0
7.6 0.8 0
8 0.8 0
8.4 0.8 0
8.8 0.8 0
9.2 0.8 0
9.6 0.8 0
10 0.8 0
10.4 0.8 0
10.8 0.8 0
11.2 0.8 0
11.6 0.8 0
12 0.8 0
12.4 0.8 0
12.8 0.8 0
13.2 0.8 0
13.6 0.8 0
14 0.8 0
14.4 0.8 0
14.8 0.8 0
15.2 0.8 0
15.6 0.8 0
16 0.8 0
16.4 0.8 0
16.8 0.8 0
17.2 0.8 0
17.6 0.8 0
18 0.8 0
18.4 0.8 0
18.8 0.8 0
19.2 0.8 0
19.6 0.8 0
20 0.8 0
20.4 0.8 0
20.8 0.8 0
21.2 0.8 0
21.6 0.8 0
22 0.8 0
22.4 0.8 0
22.8 0.8 0
23.2 0.8 0
23.6 0.8 0
24 0.8 0
24.4 0.8 0
24.8 0.8 0
25.2 0.8 0
25.6 0.8 0
26 0.8 0
26.4 0.8 0
26.8 0.8 0
27.2 0.8 0
27.6 0.8 0
28 0.8 0
28.4 0.8 0
28.8 0.8 0
29.2 0.8 0
29.6 0.8 0
30 0.8 0
30.4 0.8 0
30.8 0.8 0
31.2 0.8 0
31.6 0.8 0
32 0.8 0
32.4 0.8 0
32.8 0.8 0
33.2 0.8 0
33.6 0.8 0
34 0.8 0
34.4 0.8 0
34.8 0.8 0
35.2 0.8 0
35.6 0.8 0
36 0.8 0
36.4 0.8 0
36.8 0.8 0
37.2 0.8 0
37.6 0.8 0
38 0.8 0
38.4 0.8 0
38.8 0.8 0
39.2 0.8 0
39.6 0.8 0
40 0.8 0
40.4 0.8 0
0 0.9 0
0.4 0.9 0
0.8 0.9 0
1.2 0.9 0
1.6 0.9 0
2 0.9 0
2.4 0.9 0
2.8 0.9 0
3.2 0.9 0
3.6 0.9 0
4 0.9 0
4.4 0.9 0
4.8 0.9 0
5.2 0.9 0
5.6 0.9 0
6 0.9 0
6.4 0.9 0
6.8 0.9 0
7.2 0.9 0
7.6 0.9 0
8 0.9 0
8.4 0.9 0
8.8 0.9 0
9.2 0.9 0
9.6 0.9 0
10 0.9 0
10.4 0.9 0
10.8 0.9 0
11.2 0.9 0
11.6 0.9 0
12 0.9 0
12.4 0.9 0
12.8 0.9 0
13.2 0.9 0
13.6 0.9 0
14 0.9 0
14.4 0.9 0
14.8 0.9 0
15.2 0.9 0
15.6 0.9 0
16 0.9 0
16.4 0.9 0
16.8 0.9 0
17.2 0.9 0
17.6 0.9 0
18 0.9 0
18.4 0.9 0
18.8 0.9 0
19.2 0.9 0
19.6 0.9 0
20 0.9 0
20.4 0.9 0
20.8 0.9 0
21.2 0.9 0
21.6 0.9 0
22 0.9 0
22.4 0.9 0
22.8 0.9 0
23.2 0.9 0
23.6 0.9 0
24 0.9 0
24.4 0.9 0
24.8 0.9 0
25.2 0.9 0
25.6 0.9 0
26 0.9 0
26.4 0.9 0
26.8 0.9 0
27.2 0.9 0
27.6 0.9 0
28 0.9 0
28.4 0.9 0
28.8 0.9 0
29.2 0.9 0
29.6 0.9 0
30 0.9 0
30.4 0.9 0
30.8 0.9 0
31.2 0.9 0
31.6 0.9 0
32 0.9 0
32.4 0.9 0
32.8 0.9 0
33.2 0.9 0
33.6 0.9 0
34 0.9 0
34.4 0.9 0
34.8 0.9 0
35.2 0.9 0
35.6 0.9 0
36 0.9 0
36.4 0.9 0
36.8 0.9 0
37.2 0.9 0
37.6 0.9 0
38 0.9 0
38.4 0.9 0
38.8 0.9 0
39.2 0.9 0
39.6 0.9 0
40 0.9 0
40.4 0.9 0
0 1 0
0.4 1 0
0.8 1 0
1.2 1 0
1.6 1 0
2 1 0
2.4 1 0
2.8 1 0
3.2 1 0
3.6 1 0
4 1 0
4.4 1 0
4.8 1 0
5.2 1 0
5.6 1 0
6 1 0
6.4 1 0
6.8 1 0
7.2 1 0
7.6 1 0
8 1 0
8.4 1 0
8.8 1 0
9.2 1 0
9.6 1 0
10 1 0
10.4 1 0
10.8 1 0
11.2 1 0
11.6 1 0
12 1 0
12.4 1 0
12.8 1 0
13.2 1 0
13.6 1 0
14 1 0
14.4 1 0
14.8 1 0
15.2 1 0
15.6 1 0
16 1 0
16.4 1 0
16.8 1 0
17.2 1 0
17.6 1 0
18 1 0
18.4 1 0
18.8 1 0
19.2 1 0
19.6 1 0
20 1 0
20.4 1 0
20.8 1 0
21.2 1 0
21.6 1 0
22 1 0
22.4 1 0
22.8 1 0
23.2 1 0
23.6 1 0
24 1 0
24.4 1 0
24.8 1 0
25.2 1 0
25.6 1 0
26 1 0
26.4 1 0
26.8 1 0
27.2 1 0
27.6 1 0
28 1 0
28.4 1 0
28.8 1 0
29.2 1 0
29.6 1 0
30 1 0
30.4 1 0
30.8 1 0
31.2 1 0
31.6 1 0
32 1 0
32.4 1 0
32.8 1 0
33.2 1 0
33.6 1 0
34 1 0
34.4 1 0
34.8 1 0
35.2 1 0
35.6 1 0
36 1 0
36.4 1 0
36.8 1 0
37.2 1 0
37.6 1 0
38 1 0
38.4 1 0
38.8 1 0
39.2 1 0
39.6 1 0
40 1 0
40.4 1 0
0 1.1 0
0.4 1.1 0
0.8 1.1 0
1.2 1.1 0
1.6 1.1 0
2 1.1 0
2.4 1.1 0
2.8 1.1 0
3.2 1.1 0
3.6 1.1 0
4 1.1 0
4.4 1.1 0
4.8 1.1 0
5.2 1.1 0
5.6 1.1 0
6 1.1 0
6.4 1.1 0
6.8 1.1 0
7.2 1.1 0
7.6 1.1 0
8 1.1 0
8.4 1.1 0
8.8 1.1 0
9.2 1.1 0
9.6 1.1 0
10 1.1 0
10.4 1.1 0
10.8 1.1 0
11.2 1.1 0
11.6 1.1 0
12 1.1 0
12.4 1.1 0
12.8 1.1 0
13.2 1.1 0
13.6 1.1 0
14 1.1 0
14.4 1.1 0
14.8 1.1 0
15.2 1.1 0
15.6 1.1 0
16 1.1 0
16.4 1.1 0
16.8 1.1 0
17.2 1.1 0
17.6 1.1 0
18 1.1 0
18.4 1.1 0
18.8 1.1 0
19.2 1.1 0
19.6 1.1 0
20 1.1 0
20.4 1.1 0
20.8 1.1 0
21.2 1.1 0
21.6 1.1 0
22 1.1 0
22.4 1.1 0
22.8 1.1 0
23.2 1.1 0
23.6 1.1 0
24 1.1 0
24.4 1.1 0
24.8 1.1 0
25.2 1.1 0
25.6 1.1 0
26 1.1 0
26.4 1.1 0
26.8 1.1 0
27.2 1.1 0
27.6 1.1 0
28 1.1 0
28.4 1.1 0
28.8 1.1 0
29.2 1.1 0
29.6 1.1 0
30 1.1 0
30.4 1.1 0
30.8 1.1 0
31.2 1.1 0
31.6 1.1 0
32 1.1 0
32.4 1.1 0
32.8 1.1 0
33.2 1.1 0
33.6 1.1 0
34 1.1 0
34.4 1.1 0
34.8 1.1 0
35.2 1.1 0
35.6 1.1 0
36 1.1 0
36.4 1.1 0
36.8 1.1 0
37.2 1.1 0
37.6 1.1 0
38 1.1 0
38.4 1.1 0
38.8 1.1 0
39.2 1.1 0
39.6 1.1 0
40 1.1 0
40.4 1.1 0

POINT_DATA 1224

SCALARS p double
LOOKUP_TABLE default
3.36166
3.36166
3.22668
3.12183
3.03844
2.97223
2.91708
2.86883
2.8252
2.7848
2.74662
2.70984
2.67385
2.63828
2.60289
2.56758
2.53229
2.497
2.46172
2.42644
2.39116
2.35587
2.32059
2.28531
2.25002
2.21474
2.17946
2.14417
2.10889
2.07361
2.03833
2.00304
1.96776
1.93248
1.89719
1.86191
1.82663
1.79134
1.75606
1.72078
1.6855
1.65021
1.61493
1.57965
1.54436
1.50908
1.4738
1.43852
1.40323
1.36795
1.33267
1.29738
1.2621
1.22682
1.19153
1.15625
1.12097
1.08569
1.0504
1.01512
0.979837
0.944554
0.909271
0.873988
0.838705
0.803422
0.768139
0.732856
0.697573
0.66229
0.627007
0.591725
0.556442
0.521159
0.485876
0.450593
0.41531
0.380027
0.344744
0.309461
0.274178
0.238894
0.203611
0.168328
0.133045
0.0977622
0.0624791
0.027196
-0.0080871
-0.0433702
-0.0786534
-0.113937
-0.14922
-0.184503
-0.219786
-0.255069
-0.290353
-0.325634
-0.360922
-0.396192
-0.431395
0.431395
3.36166
3.36166
3.22668
3.12183
3.03844
2.97223
2.91708
2.86883
2.8252
2.7848
2.74662
2.70984
2.67385
2.63828
2.60289
2.56758
2.53229
2.497
2.46172
2.42644
2.39116
2.35587
2.32059
2.28531
2.25002
2.21474
2.17946
2.14417
2.10889
2.07361
2.03833
2.00304
1.96776
1.93248
1.89719
1.86191
1.82663
1.79134
1.75606
1.72078
1.6855
1.65021
1.61493
1.57965
1.54436
1.50908
1.4738
1.43852
1.40323
1.36795
1.33267
1.29738
1.2621
1.22682
1.19153
1.15625
1.12097
1.08569
1.0504
1.01512
0.979837
0.944554
0.909271
0.873988
0.838705
0.803422
0.768139
0.732856
0.697573
0.66229
0.627007
0.591725
0.556442
0.521159
0.485876
0.450593
0.41531
0.380027
0.344744
0.309461
0.274178
0.238894
0.203611
0.168328
0.133045
0.0977622
0.0624791
0.027196
-0.0080871
-0.0433702
-0.0786534
-0.113937
-0.14922
-0.184503
-0.219786
-0.255069
-0.290353
-0.325634
-0.360922
-0.396192
-0.431395
0.431395
3.3387
3.3387
3.22734
3.12396
3.04011
2.97325
2.91764
2.86912
2.82534
2.78486
2.74664
2.70984
2.67385
2.63828
2.60289
2.56758
2.53229
2.497
2.46172
2.42644
2.39116
2.35587
2.32059
2.28531
2.25002
2.21474
2.17946
2.14417
2.10889
2.07361
2.03833
2.00304
1.96776
1.93248
1.89719
1.86191
1.82663
1.79134
1.75606
1.72078
1.6855
1.65021
1.61493
1.57965
1.54436
1.50908
1.4738
1.43852
1.40323
1.36795
1.33267
1.29738
1.2621
1.22682
1.19153
1.15625
1.12097
1.08569
1.0504
1.01512
0.979837
0.944554
0.909271
0.873988
0.838705
0.803422
0.768139
0.732856
0.697573
0.66229
0.627007
0.591725
0.556442
0.521159
0.485876
0.450593
0.41531
0.380027
0.344744
0.309461
0.274178
0.238894
0.203611
0.168328
0.133045
0.0977622
0.0624791
0.027196
-0.00808711
-0.0433702
-0.0786534
-0.113937
-0.14922
-0.184503
-0.219786
-0.255069
-0.290353
-0.325634
-0.360921
-0.396193
-0.431398
0.431398
3.3269
3.3269
3.22823
3.12728
3.04278
2.97486
2.91851
2.86958
2.82558
2.78498
2.7467
2.70987
2.67386
2.63828
2.60289
2.56758
2.53229
2.497
2.46172
2.42644
2.39116
2.35587
2.32059
2.28531
2.25002
2.21474
2.17946
2.14417
2.10889
2.07361
2.03833
2.00304
1.96776
1.93248
1.89719
1.86191
1.82663
1.79134
1.75606
1.72078
1.6855
1.65021
1.61493
1.57965
1.54436
1.50908
1.4738
1.43852
1.40323
1.36795
1.33267
1.29738
1.2621
1.22682
1.19153
1.15625
1.12097
1.08569
1.0504
1.01512
0.979837
0.944554
0.909271
0.873988
0.838705
0.803422
0.768139
0.732856
0.697573
0.66229
0.627007
0.591725
0.556442
0.521159
0.485876
0.450593
0.41531
0.380027
0.344744
0.309461
0.274177
0.238894
0.203611
0.168328
0.133045
0.0977622
0.0624791
0.027196
-0.00808711
-0.0433702
-0.0786534
-0.113937
-0.14922
-0.184503
-0.219786
-0.255069
-0.290353
-0.325634
-0.360918
-0.396175
-0.431394
0.431394
3.32006
3.32006
3.22903
3.13012
3.04523
2.97644
2.91944
2.87012
2.8259
2.78517
2.7468
2.70992
2.67389
2.63829
2.6029
2.56758
2.53229
2.497
2.46172
2.42644
2.39116
2.35587
2.32059
2.28531
2.25002
2.21474
2.17946
2.14417
2.10889
2.07361
2.03833
2.00304
1.96776
1.93248
1.89719
1.86191
1.82663
1.79134
1.75606
1.72078
1.6855
1.65021
1.61493
1.57965
1.54436
1.50908
1.4738
1.43852
1.40323
1.36795
1.33267
1.29738
1.2621
1.22682
1.19153
1.15625
1.12097
1.08569
1.0504
1.01512
0.979837
0.944554
0.909271
0.873988
0.838705
0.803422
0.768139
0.732856
0.697573
0.66229
0.627007
0.591725
0.556442
0.521159
0.485876
0.450593
0.41531
0.380027
0.344744
0.309461
0.274177
0.238894
0.203611
0.168328
0.133045
0.0977622
0.0624791
0.027196
-0.00808711
-0.0433702
-0.0786534
-0.113937
-0.14922
-0.184503
-0.219786
-0.255069
-0.290352
-0.325633
-0.360913
-0.396143
-0.431386
0.431386
3.31675
3.31675
3.22949
3.13169
3.04662
2.97738
2.92002
2.87047
2.82612
2.78531
2.74689
2.70997
2.67391
2.6383
2.6029
2.56758
2.53229
2.497
2.46172
2.42644
2.39116
2.35587
2.32059
2.28531
2.25002
2.21474
2.17946
2.14417
2.10889
2.07361
2.03833
2.00304
1.96776
1.93248
1.89719
1.86191
1.82663
1.79134
1.75606
1.72078
1.6855
1.65021
1.61493
1.57965
1.54436
1.50908
1.4738
1.43852
1.40323
1.36795
1.33267
1.29738
1.2621
1.22682
1.19153
1.15625
1.12097
1.08569
1.0504
1.01512
0.979837
0.944554
0.909271
0.873988
0.838705
0.803422
0.768139
0.732856
0.697573
0.66229
0.627007
0.591725
0.556442
0.521159
0.485876
0.450593
0.41531
0.380027
0.344744
0.309461
0.274177
0.238894
0.203611
0.168328
0.133045
0.0977622
0.0624791
0.027196
-0.00808711
-0.0433702
-0.0786534
-0.113937
-0.14922
-0.184503
-0.219786
-0.255069
-0.290352
-0.325633
-0.360909
-0.396119
-0.43138
0.43138
3.31675
3.31675
3.22949
3.13169
3.04662
2.97738
2.92002
2.87047
2.82612
2.78531
2.74689
2.70997
2.67391
2.6383
2.6029
2.56758
2.53229
2.497
2.46172
2.42644
2.39116
2.35587
2.32059
2.28531
2.25002
2.21474
2.17946
2.14417
2.10889
2.07361
2.03833
2.00304
1.96776
1.93248
1.89719
1.86191
1.82663
1.79134
1.75606
1.72078
1.6855
1.65021
1.61493
1.57965
1.54436
1.50908
1.4738
1.43852
1.40323
1.36795
1.33267
1.29738
1.2621
1.22682
1.19153
1.15625
1.12097
1.08569
1.0504
1.01512
0.979837
0.944554
0.909271
0.873988
0.838705
0.803422
0.768139
0.732856
0.697573
0.66229
0.627007
0.591725
0.556442
0.521159
0.485876
0.450593
0.41531
0.380027
0.344744
0.309461
0.274177
0.238894
0.203611
0.168328
0.133045
0.0977622
0.0624791
0.027196
-0.00808711
-0.0433702
-0.0786534
-0.113937
-0.14922
-0.184503
-0.219786
-0.255069
-0.290352
-0.325633
-0.360909
-0.396119
-0.43138
0.43138
3.32006
3.32006
3.22903
3.13012
3.04523
2.97644
2.91944
2.87012
2.8259
2.78517
2.7468
2.70992
2.67389
2.63829
2.6029
2.56758
2.53229
2.497
2.46172
2.42644
2.39116
2.35587
2.32059
2.28531
2.25002
2.21474
2.17946
2.14417
2.10889
2.07361
2.03833
2.00304
1.96776
1.93248
1.89719
1.86191
1.82663
1.79134
1.75606
1.72078
1.6855
1.65021
1.61493
1.57965
1.54436
1.50908
1.4738
1.43852
1.40323
1.36795
1.33267
1.29738
1.2621
1.22682
1.19153
1.15625
1.12097
1.08569
1.0504
1.01512
0.979837
0.944554
0.909271
0.873988
0.838705
0.803422
0.768139
0.732856
0.697573
0.66229
0.627007
0.591725
0.556442
0.521159
0.485876
0.450593
0.41531
0.380027
0.344744
0.309461
0.274177
0.238894
0.203611
0.168328
0.133045
0.0977622
0.0624791
0.027196
-0.00808712
-0.0433702
-0.0786534
-0.113937
-0.14922
-0.184503
-0.219786
-0.255069
-0.290352
-0.325633
-0.360913
-0.396143
-0.431386
0.431386
3.3269
3.3269
3.22823
3.12728
3.04278
2.97486
2.91851
2.86958
2.82558
2.78498
2.7467
2.70987
2.67386
2.63828
2.60289
2.56758
2.53229
2.497
2.46172
2.42644
2.39116
2.35587
2.32059
2.28531
2.25002
2.21474
2.17946
2.14417
2.10889
2.07361
2.03833
2.00304
1.96776
1.93248
1.89719
1.86191
1.82663
1.79134
1.75606
1.72078
1.6855
1.65021
1.61493
1.57965
1.54436
1.50908
1.4738
1.43852
1.40323
1.36795
1.33267
1.29738
1.2621
1.22682
1.19153
1.15625
1.12097
1.08569
1.0504
1.01512
0.979837
0.944554
0.909271
0.873988
0.838705
0.803422
0.768139
0.732856
0.697573
0.66229
0.627007
0.591725
0.556442
0.521159
0.485876
0.450593
0.41531
0.380027
0.344744
0.309461
0.274177
0.238894
0.203611
0.168328
0.133045
0.0977622
0.0624791
0.027196
-0.00808712
-0.0433702
-0.0786534
-0.113937
-0.14922
-0.184503
-0.219786
-0.255069
-0.290353
-0.325634
-0.360918
-0.396175
-0.431394
0.431394
3.3387
3.3387
3.22734
3.12396
3.04011
2.97325
2.91764
2.86912
2.82534
2.78486
2.74664
2.70984
2.67385
2.63828
2.60289
2.56758
2.53229
2.497
2.46172
2.42644
2.39116
2.35587
2.32059
2.28531
2.25002
2.21474
2.17946
2.14417
2.10889
2.07361
2.03833
2.00304
1.96776
1.93248
1.89719
1.86191
1.82663
1.79134
1.75606
1.72078
1.6855
1.65021
1.61493
1.57965
1.54436
1.50908
1.4738
1.43852
1.40323
1.36795
1.33267
1.29738
1.2621
1.22682
1.19153
1.15625
1.12097
1.08569
1.0504
1.01512
0.979837
0.944554
0.909271
0.873988
0.838705
0.803422
0.768139
0.732856
0.697573
0.66229
0.627007
0.591725
0.556442
0.521159
0.485876
0.450593
0.41531
0.380027
0.344744
0.309461
0.274177
0.238894
0.203611
0.168328
0.133045
0.0977622
0.0624791
0.027196
-0.00808712
-0.0433702
-0.0786534
-0.113937
-0.14922
-0.184503
-0.219786
-0.255069
-0.290353
-0.325634
-0.360921
-0.396193
-0.431398
0.431398
3.36166
3.36166
3.22668
3.12183
3.03844
2.97223
2.91708
2.86883
2.8252
2.7848
2.74662
2.70984
2.67385
2.63828
2.60289
2.56758
2.53229
2.497
2.46172
2.42644
2.39116
2.35587
2.32059
2.28531
2.25002
2.21474
2.17946
2.14417
2.10889
2.07361
2.03833
2.00304
1.96776
1.93248
1.89719
1.86191
1.82663
1.79134
1.75606
1.72078
1.6855
1.65021
1.61493
1.57965
1.54436
1.50908
1.4738
1.43852
1.40323
1.36795
1.33267
1.29738
1.2621
1.22682
1.19153
1.15625
1.12097
1.08569
1.0504
1.01512
0.979837
0.944554
0.909271
0.873988
0.838705
0.803422
0.768139
0.732856
0.697573
0.66229
0.627007
0.591725
0.556442
0.521159
0.485876
0.450593
0.41531
0.380027
0.344744
0.309461
0.274177
0.238894
0.203611
0.168328
0.133045
0.0977622
0.0624791
0.027196
-0.00808712
-0.0433702
-0.0786534
-0.113937
-0.14922
-0.184503
-0.219786
-0.255069
-0.290353
-0.325634
-0.360922
-0.396192
-0.431395
0.431395
3.36166
3.36166
3.22668
3.12183
3.03844
2.97223
2.91708
2.86883
2.8252
2.7848
2.74662
2.70984
2.67385
2.63828
2.60289
2.56758
2.53229
2.497
2.46172
2.42644
2.39116
2.35587
2.32059
2.28531
2.25002
2.21474
2.17946
2.14417
2.10889
2.07361
2.03833
2.00304
1.96776
1.93248
1.89719
1.86191
1.82663
1.79134
1.75606
1.72078
1.6855
1.65021
1.61493
1.57965
1.54436
1.50908
1.4738
1.43852
1.40323
1.36795
1.33267
1.29738
1.2621
1.22682
1.19153
1.15625
1.12097
1.08569
1.0504
1.01512
0.979837
0.944554
0.909271
0.873988
0.838705
0.803422
0.768139
0.732856
0.697573
0.66229
0.627007
0.591725
0.556442
0.521159
0.485876
0.450593
0.41531
0.380027
0.344744
0.309461
0.274177
0.238894
0.203611
0.168328
0.133045
0.0977622
0.0624791
0.027196
-0.00808712
-0.0433702
-0.0786534
-0.113937
-0.14922
-0.184503
-0.219786
-0.255069
-0.290353
-0.325634
-0.360922
-0.396192
-0.431395
0.431395
