# vtk DataFile Version 2.0
FlowField
ASCII
DATASET STRUCTURED_GRID
DIMENSIONS 101 11 1 
POINTS 1111 double
0 0 0
0.3 0 0
0.6 0 0
0.9 0 0
1.2 0 0
1.5 0 0
1.8 0 0
2.1 0 0
2.4 0 0
2.7 0 0
3 0 0
3.3 0 0
3.6 0 0
3.9 0 0
4.2 0 0
4.5 0 0
4.8 0 0
5.1 0 0
5.4 0 0
5.7 0 0
6 0 0
6.3 0 0
6.6 0 0
6.9 0 0
7.2 0 0
7.5 0 0
7.8 0 0
8.1 0 0
8.4 0 0
8.7 0 0
9 0 0
9.3 0 0
9.6 0 0
9.9 0 0
10.2 0 0
10.5 0 0
10.8 0 0
11.1 0 0
11.4 0 0
11.7 0 0
12 0 0
12.3 0 0
12.6 0 0
12.9 0 0
13.2 0 0
13.5 0 0
13.8 0 0
14.1 0 0
14.4 0 0
14.7 0 0
15 0 0
15.3 0 0
15.6 0 0
15.9 0 0
16.2 0 0
16.5 0 0
16.8 0 0
17.1 0 0
17.4 0 0
17.7 0 0
18 0 0
18.3 0 0
18.6 0 0
18.9 0 0
19.2 0 0
19.5 0 0
19.8 0 0
20.1 0 0
20.4 0 0
20.7 0 0
21 0 0
21.3 0 0
21.6 0 0
21.9 0 0
22.2 0 0
22.5 0 0
22.8 0 0
23.1 0 0
23.4 0 0
23.7 0 0
24 0 0
24.3 0 0
24.6 0 0
24.9 0 0
25.2 0 0
25.5 0 0
25.8 0 0
26.1 0 0
26.4 0 0
26.7 0 0
27 0 0
27.3 0 0
27.6 0 0
27.9 0 0
28.2 0 0
28.5 0 0
28.8 0 0
29.1 0 0
29.4 0 0
29.7 0 0
30 0 0
0 0.1 0
0.3 0.1 0
0.6 0.1 0
0.9 0.1 0
1.2 0.1 0
1.5 0.1 0
1.8 0.1 0
2.1 0.1 0
2.4 0.1 0
2.7 0.1 0
3 0.1 0
3.3 0.1 0
3.6 0.1 0
3.9 0.1 0
4.2 0.1 0
4.5 0.1 0
4.8 0.1 0
5.1 0.1 0
5.4 0.1 0
5.7 0.1 0
6 0.1 0
6.3 0.1 0
6.6 0.1 0
6.9 0.1 0
7.2 0.1 0
7.5 0.1 0
7.8 0.1 0
8.1 0.1 0
8.4 0.1 0
8.7 0.1 0
9 0.1 0
9.3 0.1 0
9.6 0.1 0
9.9 0.1 0
10.2 0.1 0
10.5 0.1 0
10.8 0.1 0
11.1 0.1 0
11.4 0.1 0
11.7 0.1 0
12 0.1 0
12.3 0.1 0
12.6 0.1 0
12.9 0.1 0
13.2 0.1 0
13.5 0.1 0
13.8 0.1 0
14.1 0.1 0
14.4 0.1 0
14.7 0.1 0
15 0.1 0
15.3 0.1 0
15.6 0.1 0
15.9 0.1 0
16.2 0.1 0
16.5 0.1 0
16.8 0.1 0
17.1 0.1 0
17.4 0.1 0
17.7 0.1 0
18 0.1 0
18.3 0.1 0
18.6 0.1 0
18.9 0.1 0
19.2 0.1 0
19.5 0.1 0
19.8 0.1 0
20.1 0.1 0
20.4 0.1 0
20.7 0.1 0
21 0.1 0
21.3 0.1 0
21.6 0.1 0
21.9 0.1 0
22.2 0.1 0
22.5 0.1 0
22.8 0.1 0
23.1 0.1 0
23.4 0.1 0
23.7 0.1 0
24 0.1 0
24.3 0.1 0
24.6 0.1 0
24.9 0.1 0
25.2 0.1 0
25.5 0.1 0
25.8 0.1 0
26.1 0.1 0
26.4 0.1 0
26.7 0.1 0
27 0.1 0
27.3 0.1 0
27.6 0.1 0
27.9 0.1 0
28.2 0.1 0
28.5 0.1 0
28.8 0.1 0
29.1 0.1 0
29.4 0.1 0
29.7 0.1 0
30 0.1 0
0 0.2 0
0.3 0.2 0
0.6 0.2 0
0.9 0.2 0
1.2 0.2 0
1.5 0.2 0
1.8 0.2 0
2.1 0.2 0
2.4 0.2 0
2.7 0.2 0
3 0.2 0
3.3 0.2 0
3.6 0.2 0
3.9 0.2 0
4.2 0.2 0
4.5 0.2 0
4.8 0.2 0
5.1 0.2 0
5.4 0.2 0
5.7 0.2 0
6 0.2 0
6.3 0.2 0
6.6 0.2 0
6.9 0.2 0
7.2 0.2 0
7.5 0.2 0
7.8 0.2 0
8.1 0.2 0
8.4 0.2 0
8.7 0.2 0
9 0.2 0
9.3 0.2 0
9.6 0.2 0
9.9 0.2 0
10.2 0.2 0
10.5 0.2 0
10.8 0.2 0
11.1 0.2 0
11.4 0.2 0
11.7 0.2 0
12 0.2 0
12.3 0.2 0
12.6 0.2 0
12.9 0.2 0
13.2 0.2 0
13.5 0.2 0
13.8 0.2 0
14.1 0.2 0
14.4 0.2 0
14.7 0.2 0
15 0.2 0
15.3 0.2 0
15.6 0.2 0
15.9 0.2 0
16.2 0.2 0
16.5 0.2 0
16.8 0.2 0
17.1 0.2 0
17.4 0.2 0
17.7 0.2 0
18 0.2 0
18.3 0.2 0
18.6 0.2 0
18.9 0.2 0
19.2 0.2 0
19.5 0.2 0
19.8 0.2 0
20.1 0.2 0
20.4 0.2 0
20.7 0.2 0
21 0.2 0
21.3 0.2 0
21.6 0.2 0
21.9 0.2 0
22.2 0.2 0
22.5 0.2 0
22.8 0.2 0
23.1 0.2 0
23.4 0.2 0
23.7 0.2 0
24 0.2 0
24.3 0.2 0
24.6 0.2 0
24.9 0.2 0
25.2 0.2 0
25.5 0.2 0
25.8 0.2 0
26.1 0.2 0
26.4 0.2 0
26.7 0.2 0
27 0.2 0
27.3 0.2 0
27.6 0.2 0
27.9 0.2 0
28.2 0.2 0
28.5 0.2 0
28.8 0.2 0
29.1 0.2 0
29.4 0.2 0
29.7 0.2 0
30 0.2 0
0 0.3 0
0.3 0.3 0
0.6 0.3 0
0.9 0.3 0
1.2 0.3 0
1.5 0.3 0
1.8 0.3 0
2.1 0.3 0
2.4 0.3 0
2.7 0.3 0
3 0.3 0
3.3 0.3 0
3.6 0.3 0
3.9 0.3 0
4.2 0.3 0
4.5 0.3 0
4.8 0.3 0
5.1 0.3 0
5.4 0.3 0
5.7 0.3 0
6 0.3 0
6.3 0.3 0
6.6 0.3 0
6.9 0.3 0
7.2 0.3 0
7.5 0.3 0
7.8 0.3 0
8.1 0.3 0
8.4 0.3 0
8.7 0.3 0
9 0.3 0
9.3 0.3 0
9.6 0.3 0
9.9 0.3 0
10.2 0.3 0
10.5 0.3 0
10.8 0.3 0
11.1 0.3 0
11.4 0.3 0
11.7 0.3 0
12 0.3 0
12.3 0.3 0
12.6 0.3 0
12.9 0.3 0
13.2 0.3 0
13.5 0.3 0
13.8 0.3 0
14.1 0.3 0
14.4 0.3 0
14.7 0.3 0
15 0.3 0
15.3 0.3 0
15.6 0.3 0
15.9 0.3 0
16.2 0.3 0
16.5 0.3 0
16.8 0.3 0
17.1 0.3 0
17.4 0.3 0
17.7 0.3 0
18 0.3 0
18.3 0.3 0
18.6 0.3 0
18.9 0.3 0
19.2 0.3 0
19.5 0.3 0
19.8 0.3 0
20.1 0.3 0
20.4 0.3 0
20.7 0.3 0
21 0.3 0
21.3 0.3 0
21.6 0.3 0
21.9 0.3 0
22.2 0.3 0
22.5 0.3 0
22.8 0.3 0
23.1 0.3 0
23.4 0.3 0
23.7 0.3 0
24 0.3 0
24.3 0.3 0
24.6 0.3 0
24.9 0.3 0
25.2 0.3 0
25.5 0.3 0
25.8 0.3 0
26.1 0.3 0
26.4 0.3 0
26.7 0.3 0
27 0.3 0
27.3 0.3 0
27.6 0.3 0
27.9 0.3 0
28.2 0.3 0
28.5 0.3 0
28.8 0.3 0
29.1 0.3 0
29.4 0.3 0
29.7 0.3 0
30 0.3 0
0 0.4 0
0.3 0.4 0
0.6 0.4 0
0.9 0.4 0
1.2 0.4 0
1.5 0.4 0
1.8 0.4 0
2.1 0.4 0
2.4 0.4 0
2.7 0.4 0
3 0.4 0
3.3 0.4 0
3.6 0.4 0
3.9 0.4 0
4.2 0.4 0
4.5 0.4 0
4.8 0.4 0
5.1 0.4 0
5.4 0.4 0
5.7 0.4 0
6 0.4 0
6.3 0.4 0
6.6 0.4 0
6.9 0.4 0
7.2 0.4 0
7.5 0.4 0
7.8 0.4 0
8.1 0.4 0
8.4 0.4 0
8.7 0.4 0
9 0.4 0
9.3 0.4 0
9.6 0.4 0
9.9 0.4 0
10.2 0.4 0
10.5 0.4 0
10.8 0.4 0
11.1 0.4 0
11.4 0.4 0
11.7 0.4 0
12 0.4 0
12.3 0.4 0
12.6 0.4 0
12.9 0.4 0
13.2 0.4 0
13.5 0.4 0
13.8 0.4 0
14.1 0.4 0
14.4 0.4 0
14.7 0.4 0
15 0.4 0
15.3 0.4 0
15.6 0.4 0
15.9 0.4 0
16.2 0.4 0
16.5 0.4 0
16.8 0.4 0
17.1 0.4 0
17.4 0.4 0
17.7 0.4 0
18 0.4 0
18.3 0.4 0
18.6 0.4 0
18.9 0.4 0
19.2 0.4 0
19.5 0.4 0
19.8 0.4 0
20.1 0.4 0
20.4 0.4 0
20.7 0.4 0
21 0.4 0
21.3 0.4 0
21.6 0.4 0
21.9 0.4 0
22.2 0.4 0
22.5 0.4 0
22.8 0.4 0
23.1 0.4 0
23.4 0.4 0
23.7 0.4 0
24 0.4 0
24.3 0.4 0
24.6 0.4 0
24.9 0.4 0
25.2 0.4 0
25.5 0.4 0
25.8 0.4 0
26.1 0.4 0
26.4 0.4 0
26.7 0.4 0
27 0.4 0
27.3 0.4 0
27.6 0.4 0
27.9 0.4 0
28.2 0.4 0
28.5 0.4 0
28.8 0.4 0
29.1 0.4 0
29.4 0.4 0
29.7 0.4 0
30 0.4 0
0 0.5 0
0.3 0.5 0
0.6 0.5 0
0.9 0.5 0
1.2 0.5 0
1.5 0.5 0
1.8 0.5 0
2.1 0.5 0
2.4 0.5 0
2.7 0.5 0
3 0.5 0
3.3 0.5 0
3.6 0.5 0
3.9 0.5 0
4.2 0.5 0
4.5 0.5 0
4.8 0.5 0
5.1 0.5 0
5.4 0.5 0
5.7 0.5 0
6 0.5 0
6.3 0.5 0
6.6 0.5 0
6.9 0.5 0
7.2 0.5 0
7.5 0.5 0
7.8 0.5 0
8.1 0.5 0
8.4 0.5 0
8.7 0.5 0
9 0.5 0
9.3 0.5 0
9.6 0.5 0
9.9 0.5 0
10.2 0.5 0
10.5 0.5 0
10.8 0.5 0
11.1 0.5 0
11.4 0.5 0
11.7 0.5 0
12 0.5 0
12.3 0.5 0
12.6 0.5 0
12.9 0.5 0
13.2 0.5 0
13.5 0.5 0
13.8 0.5 0
14.1 0.5 0
14.4 0.5 0
14.7 0.5 0
15 0.5 0
15.3 0.5 0
15.6 0.5 0
15.9 0.5 0
16.2 0.5 0
16.5 0.5 0
16.8 0.5 0
17.1 0.5 0
17.4 0.5 0
17.7 0.5 0
18 0.5 0
18.3 0.5 0
18.6 0.5 0
18.9 0.5 0
19.2 0.5 0
19.5 0.5 0
19.8 0.5 0
20.1 0.5 0
20.4 0.5 0
20.7 0.5 0
21 0.5 0
21.3 0.5 0
21.6 0.5 0
21.9 0.5 0
22.2 0.5 0
22.5 0.5 0
22.8 0.5 0
23.1 0.5 0
23.4 0.5 0
23.7 0.5 0
24 0.5 0
24.3 0.5 0
24.6 0.5 0
24.9 0.5 0
25.2 0.5 0
25.5 0.5 0
25.8 0.5 0
26.1 0.5 0
26.4 0.5 0
26.7 0.5 0
27 0.5 0
27.3 0.5 0
27.6 0.5 0
27.9 0.5 0
28.2 0.5 0
28.5 0.5 0
28.8 0.5 0
29.1 0.5 0
29.4 0.5 0
29.7 0.5 0
30 0.5 0
0 0.6 0
0.3 0.6 0
0.6 0.6 0
0.9 0.6 0
1.2 0.6 0
1.5 0.6 0
1.8 0.6 0
2.1 0.6 0
2.4 0.6 0
2.7 0.6 0
3 0.6 0
3.3 0.6 0
3.6 0.6 0
3.9 0.6 0
4.2 0.6 0
4.5 0.6 0
4.8 0.6 0
5.1 0.6 0
5.4 0.6 0
5.7 0.6 0
6 0.6 0
6.3 0.6 0
6.6 0.6 0
6.9 0.6 0
7.2 0.6 0
7.5 0.6 0
7.8 0.6 0
8.1 0.6 0
8.4 0.6 0
8.7 0.6 0
9 0.6 0
9.3 0.6 0
9.6 0.6 0
9.9 0.6 0
10.2 0.6 0
10.5 0.6 0
10.8 0.6 0
11.1 0.6 0
11.4 0.6 0
11.7 0.6 0
12 0.6 0
12.3 0.6 0
12.6 0.6 0
12.9 0.6 0
13.2 0.6 0
13.5 0.6 0
13.8 0.6 0
14.1 0.6 0
14.4 0.6 0
14.7 0.6 0
15 0.6 0
15.3 0.6 0
15.6 0.6 0
15.9 0.6 0
16.2 0.6 0
16.5 0.6 0
16.8 0.6 0
17.1 0.6 0
17.4 0.6 0
17.7 0.6 0
18 0.6 0
18.3 0.6 0
18.6 0.6 0
18.9 0.6 0
19.2 0.6 0
19.5 0.6 0
19.8 0.6 0
20.1 0.6 0
20.4 0.6 0
20.7 0.6 0
21 0.6 0
21.3 0.6 0
21.6 0.6 0
21.9 0.6 0
22.2 0.6 0
22.5 0.6 0
22.8 0.6 0
23.1 0.6 0
23.4 0.6 0
23.7 0.6 0
24 0.6 0
24.3 0.6 0
24.6 0.6 0
24.9 0.6 0
25.2 0.6 0
25.5 0.6 0
25.8 0.6 0
26.1 0.6 0
26.4 0.6 0
26.7 0.6 0
27 0.6 0
27.3 0.6 0
27.6 0.6 0
27.9 0.6 0
28.2 0.6 0
28.5 0.6 0
28.8 0.6 0
29.1 0.6 0
29.4 0.6 0
29.7 0.6 0
30 0.6 0
0 0.7 0
0.3 0.7 0
0.6 0.7 0
0.9 0.7 0
1.2 0.7 0
1.5 0.7 0
1.8 0.7 0
2.1 0.7 0
2.4 0.7 0
2.7 0.7 0
3 0.7 0
3.3 0.7 0
3.6 0.7 0
3.9 0.7 0
4.2 0.7 0
4.5 0.7 0
4.8 0.7 0
5.1 0.7 0
5.4 0.7 0
5.7 0.7 0
6 0.7 0
6.3 0.7 0
6.6 0.7 0
6.9 0.7 0
7.2 0.7 0
7.5 0.7 0
7.8 0.7 0
8.1 0.7 0
8.4 0.7 0
8.7 0.7 0
9 0.7 0
9.3 0.7 0
9.6 0.7 0
9.9 0.7 0
10.2 0.7 0
10.5 0.7 0
10.8 0.7 0
11.1 0.7 0
11.4 0.7 0
11.7 0.7 0
12 0.7 0
12.3 0.7 0
12.6 0.7 0
12.9 0.7 0
13.2 0.7 0
13.5 0.7 0
13.8 0.7 0
14.1 0.7 0
14.4 0.7 0
14.7 0.7 0
15 0.7 0
15.3 0.7 0
15.6 0.7 0
15.9 0.7 0
16.2 0.7 0
16.5 0.7 0
16.8 0.7 0
17.1 0.7 0
17.4 0.7 0
17.7 0.7 0
18 0.7 0
18.3 0.7 0
18.6 0.7 0
18.9 0.7 0
19.2 0.7 0
19.5 0.7 0
19.8 0.7 0
20.1 0.7 0
20.4 0.7 0
20.7 0.7 0
21 0.7 0
21.3 0.7 0
21.6 0.7 0
21.9 0.7 0
22.2 0.7 0
22.5 0.7 0
22.8 0.7 0
23.1 0.7 0
23.4 0.7 0
23.7 0.7 0
24 0.7 0
24.3 0.7 0
24.6 0.7 0
24.9 0.7 0
25.2 0.7 0
25.5 0.7 0
25.8 0.7 0
26.1 0.7 0
26.4 0.7 0
26.7 0.7 0
27 0.7 0
27.3 0.7 0
27.6 0.7 0
27.9 0.7 0
28.2 0.7 0
28.5 0.7 0
28.8 0.7 0
29.1 0.7 0
29.4 0.7 0
29.7 0.7 0
30 0.7 0
0 0.8 0
0.3 0.8 0
0.6 0.8 0
0.9 0.8 0
1.2 0.8 0
1.5 0.8 0
1.8 0.8 0
2.1 0.8 0
2.4 0.8 0
2.7 0.8 0
3 0.8 0
3.3 0.8 0
3.6 0.8 0
3.9 0.8 0
4.2 0.8 0
4.5 0.8 0
4.8 0.8 0
5.1 0.8 0
5.4 0.8 0
5.7 0.8 0
6 0.8 0
6.3 0.8 0
6.6 0.8 0
6.9 0.8 0
7.2 0.8 0
7.5 0.8 0
7.8 0.8 0
8.1 0.8 0
8.4 0.8 0
8.7 0.8 0
9 0.8 0
9.3 0.8 0
9.6 0.8 0
9.9 0.8 0
10.2 0.8 0
10.5 0.8 0
10.8 0.8 0
11.1 0.8 0
11.4 0.8 0
11.7 0.8 0
12 0.8 0
12.3 0.8 0
12.6 0.8 0
12.9 0.8 0
13.2 0.8 0
13.5 0.8 0
13.8 0.8 0
14.1 0.8 0
14.4 0.8 0
14.7 0.8 0
15 0.8 0
15.3 0.8 0
15.6 0.8 0
15.9 0.8 0
16.2 0.8 0
16.5 0.8 0
16.8 0.8 0
17.1 0.8 0
17.4 0.8 0
17.7 0.8 0
18 0.8 0
18.3 0.8 0
18.6 0.8 0
18.9 0.8 0
19.2 0.8 0
19.5 0.8 0
19.8 0.8 0
20.1 0.8 0
20.4 0.8 0
20.7 0.8 0
21 0.8 0
21.3 0.8 0
21.6 0.8 0
21.9 0.8 0
22.2 0.8 0
22.5 0.8 0
22.8 0.8 0
23.1 0.8 0
23.4 0.8 0
23.7 0.8 0
24 0.8 0
24.3 0.8 0
24.6 0.8 0
24.9 0.8 0
25.2 0.8 0
25.5 0.8 0
25.8 0.8 0
26.1 0.8 0
26.4 0.8 0
26.7 0.8 0
27 0.8 0
27.3 0.8 0
27.6 0.8 0
27.9 0.8 0
28.2 0.8 0
28.5 0.8 0
28.8 0.8 0
29.1 0.8 0
29.4 0.8 0
29.7 0.8 0
30 0.8 0
0 0.9 0
0.3 0.9 0
0.6 0.9 0
0.9 0.9 0
1.2 0.9 0
1.5 0.9 0
1.8 0.9 0
2.1 0.9 0
2.4 0.9 0
2.7 0.9 0
3 0.9 0
3.3 0.9 0
3.6 0.9 0
3.9 0.9 0
4.2 0.9 0
4.5 0.9 0
4.8 0.9 0
5.1 0.9 0
5.4 0.9 0
5.7 0.9 0
6 0.9 0
6.3 0.9 0
6.6 0.9 0
6.9 0.9 0
7.2 0.9 0
7.5 0.9 0
7.8 0.9 0
8.1 0.9 0
8.4 0.9 0
8.7 0.9 0
9 0.9 0
9.3 0.9 0
9.6 0.9 0
9.9 0.9 0
10.2 0.9 0
10.5 0.9 0
10.8 0.9 0
11.1 0.9 0
11.4 0.9 0
11.7 0.9 0
12 0.9 0
12.3 0.9 0
12.6 0.9 0
12.9 0.9 0
13.2 0.9 0
13.5 0.9 0
13.8 0.9 0
14.1 0.9 0
14.4 0.9 0
14.7 0.9 0
15 0.9 0
15.3 0.9 0
15.6 0.9 0
15.9 0.9 0
16.2 0.9 0
16.5 0.9 0
16.8 0.9 0
17.1 0.9 0
17.4 0.9 0
17.7 0.9 0
18 0.9 0
18.3 0.9 0
18.6 0.9 0
18.9 0.9 0
19.2 0.9 0
19.5 0.9 0
19.8 0.9 0
20.1 0.9 0
20.4 0.9 0
20.7 0.9 0
21 0.9 0
21.3 0.9 0
21.6 0.9 0
21.9 0.9 0
22.2 0.9 0
22.5 0.9 0
22.8 0.9 0
23.1 0.9 0
23.4 0.9 0
23.7 0.9 0
24 0.9 0
24.3 0.9 0
24.6 0.9 0
24.9 0.9 0
25.2 0.9 0
25.5 0.9 0
25.8 0.9 0
26.1 0.9 0
26.4 0.9 0
26.7 0.9 0
27 0.9 0
27.3 0.9 0
27.6 0.9 0
27.9 0.9 0
28.2 0.9 0
28.5 0.9 0
28.8 0.9 0
29.1 0.9 0
29.4 0.9 0
29.7 0.9 0
30 0.9 0
0 1 0
0.3 1 0
0.6 1 0
0.9 1 0
1.2 1 0
1.5 1 0
1.8 1 0
2.1 1 0
2.4 1 0
2.7 1 0
3 1 0
3.3 1 0
3.6 1 0
3.9 1 0
4.2 1 0
4.5 1 0
4.8 1 0
5.1 1 0
5.4 1 0
5.7 1 0
6 1 0
6.3 1 0
6.6 1 0
6.9 1 0
7.2 1 0
7.5 1 0
7.8 1 0
8.1 1 0
8.4 1 0
8.7 1 0
9 1 0
9.3 1 0
9.6 1 0
9.9 1 0
10.2 1 0
10.5 1 0
10.8 1 0
11.1 1 0
11.4 1 0
11.7 1 0
12 1 0
12.3 1 0
12.6 1 0
12.9 1 0
13.2 1 0
13.5 1 0
13.8 1 0
14.1 1 0
14.4 1 0
14.7 1 0
15 1 0
15.3 1 0
15.6 1 0
15.9 1 0
16.2 1 0
16.5 1 0
16.8 1 0
17.1 1 0
17.4 1 0
17.7 1 0
18 1 0
18.3 1 0
18.6 1 0
18.9 1 0
19.2 1 0
19.5 1 0
19.8 1 0
20.1 1 0
20.4 1 0
20.7 1 0
21 1 0
21.3 1 0
21.6 1 0
21.9 1 0
22.2 1 0
22.5 1 0
22.8 1 0
23.1 1 0
23.4 1 0
23.7 1 0
24 1 0
24.3 1 0
24.6 1 0
24.9 1 0
25.2 1 0
25.5 1 0
25.8 1 0
26.1 1 0
26.4 1 0
26.7 1 0
27 1 0
27.3 1 0
27.6 1 0
27.9 1 0
28.2 1 0
28.5 1 0
28.8 1 0
29.1 1 0
29.4 1 0
29.7 1 0
30 1 0

POINT_DATA 1111

SCALARS phi double
LOOKUP_TABLE default
1
1
1
0.999994
0.999972
0.999915
0.999796
0.999583
0.99924
0.998737
0.998043
0.997136
0.996001
0.994626
0.993006
0.991141
0.989033
0.986688
0.984114
0.981322
0.978323
0.975131
0.971759
0.968222
0.964534
0.960706
0.956734
0.9526
0.948264
0.943659
0.938699
0.933283
0.927301
0.920647
0.913221
0.904939
0.895736
0.885569
0.874412
0.862263
0.849136
0.835061
0.820084
0.80426
0.787657
0.770345
0.752403
0.733911
0.714949
0.695599
0.675938
0.656044
0.635988
0.61584
0.595662
0.575515
0.555451
0.535522
0.51577
0.496235
0.476953
0.457953
0.439263
0.420905
0.402897
0.385257
0.367996
0.351126
0.334653
0.318584
0.302923
0.287671
0.272831
0.258401
0.24438
0.230768
0.217561
0.204757
0.192353
0.180347
0.168737
0.15752
0.146696
0.136263
0.126222
0.116574
0.10732
0.0984628
0.0900063
0.0819542
0.0743111
0.0670813
0.0602691
0.0538776
0.047911
0.0423624
0.0372586
0.0324923
0.0284402
0.023655
0.023655
1
1
1
0.999994
0.999972
0.999915
0.999796
0.999583
0.99924
0.998737
0.998043
0.997136
0.996001
0.994626
0.993006
0.991141
0.989033
0.986688
0.984114
0.981322
0.978323
0.975131
0.971759
0.968222
0.964534
0.960706
0.956734
0.9526
0.948264
0.943659
0.938699
0.933283
0.927301
0.920647
0.913221
0.904939
0.895736
0.885569
0.874412
0.862263
0.849136
0.835061
0.820084
0.80426
0.787657
0.770345
0.752403
0.733911
0.714949
0.695599
0.675938
0.656044
0.635988
0.61584
0.595662
0.575515
0.555451
0.535522
0.51577
0.496235
0.476953
0.457953
0.439263
0.420905
0.402897
0.385257
0.367996
0.351126
0.334653
0.318584
0.302923
0.287671
0.272831
0.258401
0.24438
0.230768
0.217561
0.204757
0.192353
0.180347
0.168737
0.15752
0.146696
0.136263
0.126222
0.116574
0.10732
0.0984628
0.0900063
0.0819542
0.0743111
0.0670813
0.0602691
0.0538776
0.047911
0.0423624
0.0372586
0.0324923
0.0284402
0.023655
0.023655
0.999997
1
0.999982
0.999903
0.99973
0.999422
0.998942
0.998257
0.99734
0.996174
0.994748
0.993059
0.991109
0.988905
0.986455
0.983772
0.98087
0.977762
0.974464
0.97099
0.967355
0.963574
0.959661
0.95563
0.951495
0.947267
0.942957
0.938569
0.9341
0.929536
0.924853
0.920012
0.914961
0.909641
0.903985
0.897925
0.891392
0.884323
0.876662
0.868362
0.859387
0.849712
0.839324
0.828222
0.816413
0.803918
0.790763
0.776982
0.762618
0.747714
0.732322
0.716492
0.700277
0.683731
0.666908
0.649859
0.632636
0.615287
0.597858
0.580394
0.562934
0.545517
0.528177
0.510946
0.493853
0.476924
0.460182
0.443647
0.427338
0.411268
0.395453
0.379902
0.364625
0.349628
0.334917
0.320496
0.306368
0.292532
0.278989
0.265738
0.252775
0.240097
0.227701
0.215581
0.203733
0.192152
0.180834
0.169774
0.158973
0.148429
0.138146
0.128129
0.118388
0.108936
0.0997933
0.0909597
0.0825338
0.0742712
0.0671373
0.0578811
0.0578811
1
0.999999
0.99946
0.998318
0.996569
0.994237
0.991359
0.987986
0.984174
0.979985
0.975479
0.970715
0.965744
0.960613
0.955362
0.950025
0.944629
0.9392
0.933755
0.928313
0.922885
0.917483
0.912115
0.906788
0.901509
0.896282
0.89111
0.885995
0.880939
0.875938
0.870987
0.866076
0.86119
0.856309
0.851408
0.846455
0.841417
0.836255
0.83093
0.825401
0.819629
0.813576
0.807206
0.80049
0.793399
0.785912
0.778012
0.769688
0.760933
0.751747
0.742134
0.732101
0.72166
0.710828
0.699624
0.688068
0.676184
0.663997
0.651533
0.638819
0.625882
0.612749
0.599447
0.586002
0.57244
0.558785
0.54506
0.531288
0.517489
0.503684
0.489889
0.476123
0.462399
0.448731
0.435132
0.421612
0.40818
0.394842
0.381606
0.368473
0.355448
0.342528
0.329713
0.316999
0.304378
0.291844
0.279386
0.266992
0.254651
0.24235
0.230079
0.217831
0.205601
0.193391
0.181222
0.169069
0.15712
0.144879
0.134175
0.119202
0.119202
1.00152
0.998478
0.989845
0.978523
0.966041
0.953192
0.940393
0.927875
0.915766
0.904141
0.893035
0.882463
0.87242
0.862891
0.853856
0.845287
0.837157
0.829439
0.822103
0.815125
0.808478
0.802139
0.796087
0.790301
0.784762
0.779454
0.77436
0.769467
0.76476
0.760228
0.755858
0.751638
0.747556
0.7436
0.739755
0.736006
0.732336
0.728727
0.725159
0.721611
0.718059
0.714479
0.710848
0.70714
0.703331
0.699397
0.695314
0.69106
0.686616
0.681963
0.677083
0.671964
0.666592
0.660959
0.655055
0.648878
0.642422
0.635687
0.628674
0.621386
0.613826
0.606001
0.597916
0.58958
0.581001
0.57219
0.563155
0.553907
0.544457
0.534815
0.524993
0.515001
0.504849
0.494549
0.484109
0.47354
0.462849
0.452046
0.441137
0.430129
0.419025
0.40783
0.396545
0.385169
0.373699
0.362127
0.350444
0.338638
0.326693
0.314588
0.302304
0.289819
0.277117
0.264175
0.251007
0.237544
0.224033
0.209751
0.197167
0.178619
0.178619
1.04956
0.950436
0.872951
0.815234
0.771993
0.739004
0.713323
0.692935
0.676455
0.662919
0.651641
0.642125
0.634005
0.627008
0.620923
0.61559
0.61088
0.606694
0.60295
0.599584
0.596543
0.593782
0.591266
0.588964
0.586851
0.584905
0.583109
0.581447
0.579906
0.578473
0.577139
0.575894
0.574731
0.573642
0.57262
0.571657
0.570747
0.569883
0.569056
0.568257
0.567479
0.566711
0.565943
0.565162
0.564356
0.563514
0.56262
0.561661
0.560623
0.559491
0.558249
0.556884
0.55538
0.553724
0.551902
0.549899
0.547704
0.545306
0.542691
0.539851
0.536776
0.533458
0.529888
0.526061
0.521971
0.517614
0.512984
0.508081
0.502901
0.497445
0.491711
0.4857
0.479414
0.472854
0.466023
0.458924
0.451561
0.443937
0.436056
0.427922
0.419538
0.410907
0.40203
0.392907
0.383535
0.373911
0.364025
0.353866
0.343419
0.332665
0.321582
0.310146
0.298336
0.286126
0.273525
0.26045
0.247165
0.232873
0.220224
0.201087
0.201087
-0.0440411
0.0440411
0.104658
0.147826
0.179978
0.204969
0.22512
0.241852
0.256065
0.268346
0.279103
0.288632
0.297153
0.30484
0.31183
0.318232
0.324136
0.329615
0.334729
0.339527
0.344051
0.348335
0.352408
0.356294
0.360014
0.363586
0.367024
0.370342
0.373551
0.376661
0.379679
0.382614
0.385471
0.388256
0.390975
0.39363
0.396226
0.398765
0.401248
0.403677
0.406051
0.408371
0.410634
0.412838
0.414978
0.417051
0.419049
0.420968
0.422797
0.42453
0.426155
0.427662
0.429039
0.430276
0.431358
0.432272
0.433006
0.433546
0.433877
0.433987
0.433863
0.43349
0.432856
0.43195
0.43076
0.429276
0.427487
0.425385
0.422963
0.420214
0.417132
0.413713
0.409953
0.405851
0.401406
0.396617
0.391485
0.386013
0.380202
0.374055
0.367575
0.360764
0.353623
0.346154
0.338355
0.330224
0.321754
0.312938
0.303766
0.294223
0.284296
0.273972
0.26324
0.252087
0.240534
0.228524
0.216306
0.20319
0.191563
0.174118
0.174118
-0.00135393
0.00135393
0.00757106
0.0154113
0.0241244
0.0333479
0.0428735
0.0525556
0.0622788
0.0719501
0.0814968
0.0908662
0.100022
0.108944
0.11762
0.126049
0.134233
0.142179
0.149896
0.157395
0.164687
0.171781
0.178688
0.185419
0.191982
0.198387
0.204641
0.210752
0.216727
0.222571
0.22829
0.23389
0.239375
0.244749
0.250015
0.255177
0.260236
0.265195
0.270055
0.274814
0.279473
0.284029
0.288479
0.29282
0.297047
0.301153
0.30513
0.308972
0.312668
0.316208
0.319581
0.322775
0.325778
0.328575
0.331155
0.333502
0.335604
0.337445
0.339012
0.340293
0.341273
0.341941
0.342284
0.342293
0.341958
0.341269
0.34022
0.338805
0.337019
0.334858
0.33232
0.329406
0.326116
0.322453
0.318419
0.31402
0.309261
0.304148
0.29869
0.292892
0.286763
0.280311
0.27354
0.266459
0.259072
0.251384
0.243396
0.235113
0.226536
0.217669
0.208517
0.199087
0.189394
0.179453
0.169306
0.158942
0.148561
0.137713
0.128138
0.114432
0.114432
-1.12304e-05
1.12304e-05
0.000371135
0.00113545
0.00236809
0.00411785
0.00641416
0.00926464
0.0126562
0.0165593
0.020933
0.0257304
0.0309028
0.036402
0.0421822
0.0482009
0.0544193
0.0608023
0.0673182
0.0739389
0.080639
0.087396
0.0941902
0.101004
0.107821
0.114629
0.121414
0.128167
0.134878
0.141539
0.148143
0.154684
0.161154
0.16755
0.173864
0.180091
0.186224
0.192256
0.198179
0.203985
0.209664
0.215204
0.220594
0.225821
0.230872
0.235732
0.240387
0.244821
0.249017
0.252962
0.256637
0.260029
0.263121
0.265898
0.268347
0.270454
0.272206
0.273593
0.274603
0.275229
0.275462
0.275298
0.27473
0.273758
0.272379
0.270595
0.268408
0.265822
0.262842
0.259477
0.255735
0.251627
0.247165
0.242361
0.237231
0.231788
0.22605
0.220032
0.213752
0.207228
0.200477
0.193516
0.186365
0.179039
0.171559
0.163941
0.156206
0.148372
0.140461
0.132497
0.124504
0.116511
0.108549
0.100651
0.0928587
0.0851917
0.0777642
0.0703628
0.0639175
0.0553981
0.0553981
1.70138e-06
-1.70138e-06
1.49765e-05
9.33843e-05
0.000299334
0.000718214
0.00144362
0.00256259
0.00414307
0.0062276
0.00883329
0.0119559
0.0155752
0.0196605
0.0241747
0.0290772
0.0343266
0.0398817
0.0457028
0.0517522
0.0579944
0.0643967
0.0709289
0.0775635
0.0842758
0.0910432
0.0978458
0.104666
0.111487
0.118294
0.125075
0.131817
0.138506
0.145131
0.151679
0.158136
0.164486
0.170716
0.176807
0.182742
0.188503
0.194069
0.199421
0.204539
0.209401
0.213988
0.218279
0.222255
0.225897
0.229187
0.232108
0.234646
0.236786
0.238516
0.239826
0.240706
0.241151
0.241155
0.240715
0.239832
0.238506
0.23674
0.234541
0.231916
0.228874
0.225427
0.221588
0.217372
0.212796
0.207877
0.202636
0.197092
0.191269
0.185189
0.178875
0.172354
0.165649
0.158788
0.151797
0.144702
0.137532
0.130313
0.123076
0.115846
0.108655
0.101529
0.0944979
0.0875906
0.0808353
0.0742598
0.0678913
0.0617556
0.0558771
0.0502774
0.0449781
0.0399886
0.035349
0.0309695
0.027221
0.0227405
0.0227405
1.70138e-06
-1.70138e-06
1.49765e-05
9.33843e-05
0.000299334
0.000718214
0.00144362
0.00256259
0.00414307
0.0062276
0.00883329
0.0119559
0.0155752
0.0196605
0.0241747
0.0290772
0.0343266
0.0398817
0.0457028
0.0517522
0.0579944
0.0643967
0.0709289
0.0775635
0.0842758
0.0910432
0.0978458
0.104666
0.111487
0.118294
0.125075
0.131817
0.138506
0.145131
0.151679
0.158136
0.164486
0.170716
0.176807
0.182742
0.188503
0.194069
0.199421
0.204539
0.209401
0.213988
0.218279
0.222255
0.225897
0.229187
0.232108
0.234646
0.236786
0.238516
0.239826
0.240706
0.241151
0.241155
0.240715
0.239832
0.238506
0.23674
0.234541
0.231916
0.228874
0.225427
0.221588
0.217372
0.212796
0.207877
0.202636
0.197092
0.191269
0.185189
0.178875
0.172354
0.165649
0.158788
0.151797
0.144702
0.137532
0.130313
0.123076
0.115846
0.108655
0.101529
0.0944979
0.0875906
0.0808353
0.0742598
0.0678913
0.0617556
0.0558771
0.0502774
0.0449781
0.0399886
0.035349
0.0309695
0.027221
0.0227405
0.0227405
