# vtk DataFile Version 2.0
FlowField
ASCII
DATASET STRUCTURED_GRID
DIMENSIONS 102 12 1 
POINTS 1224 double
0 0 0
0.3 0 0
0.6 0 0
0.9 0 0
1.2 0 0
1.5 0 0
1.8 0 0
2.1 0 0
2.4 0 0
2.7 0 0
3 0 0
3.3 0 0
3.6 0 0
3.9 0 0
4.2 0 0
4.5 0 0
4.8 0 0
5.1 0 0
5.4 0 0
5.7 0 0
6 0 0
6.3 0 0
6.6 0 0
6.9 0 0
7.2 0 0
7.5 0 0
7.8 0 0
8.1 0 0
8.4 0 0
8.7 0 0
9 0 0
9.3 0 0
9.6 0 0
9.9 0 0
10.2 0 0
10.5 0 0
10.8 0 0
11.1 0 0
11.4 0 0
11.7 0 0
12 0 0
12.3 0 0
12.6 0 0
12.9 0 0
13.2 0 0
13.5 0 0
13.8 0 0
14.1 0 0
14.4 0 0
14.7 0 0
15 0 0
15.3 0 0
15.6 0 0
15.9 0 0
16.2 0 0
16.5 0 0
16.8 0 0
17.1 0 0
17.4 0 0
17.7 0 0
18 0 0
18.3 0 0
18.6 0 0
18.9 0 0
19.2 0 0
19.5 0 0
19.8 0 0
20.1 0 0
20.4 0 0
20.7 0 0
21 0 0
21.3 0 0
21.6 0 0
21.9 0 0
22.2 0 0
22.5 0 0
22.8 0 0
23.1 0 0
23.4 0 0
23.7 0 0
24 0 0
24.3 0 0
24.6 0 0
24.9 0 0
25.2 0 0
25.5 0 0
25.8 0 0
26.1 0 0
26.4 0 0
26.7 0 0
27 0 0
27.3 0 0
27.6 0 0
27.9 0 0
28.2 0 0
28.5 0 0
28.8 0 0
29.1 0 0
29.4 0 0
29.7 0 0
30 0 0
30.3 0 0
0 0.1 0
0.3 0.1 0
0.6 0.1 0
0.9 0.1 0
1.2 0.1 0
1.5 0.1 0
1.8 0.1 0
2.1 0.1 0
2.4 0.1 0
2.7 0.1 0
3 0.1 0
3.3 0.1 0
3.6 0.1 0
3.9 0.1 0
4.2 0.1 0
4.5 0.1 0
4.8 0.1 0
5.1 0.1 0
5.4 0.1 0
5.7 0.1 0
6 0.1 0
6.3 0.1 0
6.6 0.1 0
6.9 0.1 0
7.2 0.1 0
7.5 0.1 0
7.8 0.1 0
8.1 0.1 0
8.4 0.1 0
8.7 0.1 0
9 0.1 0
9.3 0.1 0
9.6 0.1 0
9.9 0.1 0
10.2 0.1 0
10.5 0.1 0
10.8 0.1 0
11.1 0.1 0
11.4 0.1 0
11.7 0.1 0
12 0.1 0
12.3 0.1 0
12.6 0.1 0
12.9 0.1 0
13.2 0.1 0
13.5 0.1 0
13.8 0.1 0
14.1 0.1 0
14.4 0.1 0
14.7 0.1 0
15 0.1 0
15.3 0.1 0
15.6 0.1 0
15.9 0.1 0
16.2 0.1 0
16.5 0.1 0
16.8 0.1 0
17.1 0.1 0
17.4 0.1 0
17.7 0.1 0
18 0.1 0
18.3 0.1 0
18.6 0.1 0
18.9 0.1 0
19.2 0.1 0
19.5 0.1 0
19.8 0.1 0
20.1 0.1 0
20.4 0.1 0
20.7 0.1 0
21 0.1 0
21.3 0.1 0
21.6 0.1 0
21.9 0.1 0
22.2 0.1 0
22.5 0.1 0
22.8 0.1 0
23.1 0.1 0
23.4 0.1 0
23.7 0.1 0
24 0.1 0
24.3 0.1 0
24.6 0.1 0
24.9 0.1 0
25.2 0.1 0
25.5 0.1 0
25.8 0.1 0
26.1 0.1 0
26.4 0.1 0
26.7 0.1 0
27 0.1 0
27.3 0.1 0
27.6 0.1 0
27.9 0.1 0
28.2 0.1 0
28.5 0.1 0
28.8 0.1 0
29.1 0.1 0
29.4 0.1 0
29.7 0.1 0
30 0.1 0
30.3 0.1 0
0 0.2 0
0.3 0.2 0
0.6 0.2 0
0.9 0.2 0
1.2 0.2 0
1.5 0.2 0
1.8 0.2 0
2.1 0.2 0
2.4 0.2 0
2.7 0.2 0
3 0.2 0
3.3 0.2 0
3.6 0.2 0
3.9 0.2 0
4.2 0.2 0
4.5 0.2 0
4.8 0.2 0
5.1 0.2 0
5.4 0.2 0
5.7 0.2 0
6 0.2 0
6.3 0.2 0
6.6 0.2 0
6.9 0.2 0
7.2 0.2 0
7.5 0.2 0
7.8 0.2 0
8.1 0.2 0
8.4 0.2 0
8.7 0.2 0
9 0.2 0
9.3 0.2 0
9.6 0.2 0
9.9 0.2 0
10.2 0.2 0
10.5 0.2 0
10.8 0.2 0
11.1 0.2 0
11.4 0.2 0
11.7 0.2 0
12 0.2 0
12.3 0.2 0
12.6 0.2 0
12.9 0.2 0
13.2 0.2 0
13.5 0.2 0
13.8 0.2 0
14.1 0.2 0
14.4 0.2 0
14.7 0.2 0
15 0.2 0
15.3 0.2 0
15.6 0.2 0
15.9 0.2 0
16.2 0.2 0
16.5 0.2 0
16.8 0.2 0
17.1 0.2 0
17.4 0.2 0
17.7 0.2 0
18 0.2 0
18.3 0.2 0
18.6 0.2 0
18.9 0.2 0
19.2 0.2 0
19.5 0.2 0
19.8 0.2 0
20.1 0.2 0
20.4 0.2 0
20.7 0.2 0
21 0.2 0
21.3 0.2 0
21.6 0.2 0
21.9 0.2 0
22.2 0.2 0
22.5 0.2 0
22.8 0.2 0
23.1 0.2 0
23.4 0.2 0
23.7 0.2 0
24 0.2 0
24.3 0.2 0
24.6 0.2 0
24.9 0.2 0
25.2 0.2 0
25.5 0.2 0
25.8 0.2 0
26.1 0.2 0
26.4 0.2 0
26.7 0.2 0
27 0.2 0
27.3 0.2 0
27.6 0.2 0
27.9 0.2 0
28.2 0.2 0
28.5 0.2 0
28.8 0.2 0
29.1 0.2 0
29.4 0.2 0
29.7 0.2 0
30 0.2 0
30.3 0.2 0
0 0.3 0
0.3 0.3 0
0.6 0.3 0
0.9 0.3 0
1.2 0.3 0
1.5 0.3 0
1.8 0.3 0
2.1 0.3 0
2.4 0.3 0
2.7 0.3 0
3 0.3 0
3.3 0.3 0
3.6 0.3 0
3.9 0.3 0
4.2 0.3 0
4.5 0.3 0
4.8 0.3 0
5.1 0.3 0
5.4 0.3 0
5.7 0.3 0
6 0.3 0
6.3 0.3 0
6.6 0.3 0
6.9 0.3 0
7.2 0.3 0
7.5 0.3 0
7.8 0.3 0
8.1 0.3 0
8.4 0.3 0
8.7 0.3 0
9 0.3 0
9.3 0.3 0
9.6 0.3 0
9.9 0.3 0
10.2 0.3 0
10.5 0.3 0
10.8 0.3 0
11.1 0.3 0
11.4 0.3 0
11.7 0.3 0
12 0.3 0
12.3 0.3 0
12.6 0.3 0
12.9 0.3 0
13.2 0.3 0
13.5 0.3 0
13.8 0.3 0
14.1 0.3 0
14.4 0.3 0
14.7 0.3 0
15 0.3 0
15.3 0.3 0
15.6 0.3 0
15.9 0.3 0
16.2 0.3 0
16.5 0.3 0
16.8 0.3 0
17.1 0.3 0
17.4 0.3 0
17.7 0.3 0
18 0.3 0
18.3 0.3 0
18.6 0.3 0
18.9 0.3 0
19.2 0.3 0
19.5 0.3 0
19.8 0.3 0
20.1 0.3 0
20.4 0.3 0
20.7 0.3 0
21 0.3 0
21.3 0.3 0
21.6 0.3 0
21.9 0.3 0
22.2 0.3 0
22.5 0.3 0
22.8 0.3 0
23.1 0.3 0
23.4 0.3 0
23.7 0.3 0
24 0.3 0
24.3 0.3 0
24.6 0.3 0
24.9 0.3 0
25.2 0.3 0
25.5 0.3 0
25.8 0.3 0
26.1 0.3 0
26.4 0.3 0
26.7 0.3 0
27 0.3 0
27.3 0.3 0
27.6 0.3 0
27.9 0.3 0
28.2 0.3 0
28.5 0.3 0
28.8 0.3 0
29.1 0.3 0
29.4 0.3 0
29.7 0.3 0
30 0.3 0
30.3 0.3 0
0 0.4 0
0.3 0.4 0
0.6 0.4 0
0.9 0.4 0
1.2 0.4 0
1.5 0.4 0
1.8 0.4 0
2.1 0.4 0
2.4 0.4 0
2.7 0.4 0
3 0.4 0
3.3 0.4 0
3.6 0.4 0
3.9 0.4 0
4.2 0.4 0
4.5 0.4 0
4.8 0.4 0
5.1 0.4 0
5.4 0.4 0
5.7 0.4 0
6 0.4 0
6.3 0.4 0
6.6 0.4 0
6.9 0.4 0
7.2 0.4 0
7.5 0.4 0
7.8 0.4 0
8.1 0.4 0
8.4 0.4 0
8.7 0.4 0
9 0.4 0
9.3 0.4 0
9.6 0.4 0
9.9 0.4 0
10.2 0.4 0
10.5 0.4 0
10.8 0.4 0
11.1 0.4 0
11.4 0.4 0
11.7 0.4 0
12 0.4 0
12.3 0.4 0
12.6 0.4 0
12.9 0.4 0
13.2 0.4 0
13.5 0.4 0
13.8 0.4 0
14.1 0.4 0
14.4 0.4 0
14.7 0.4 0
15 0.4 0
15.3 0.4 0
15.6 0.4 0
15.9 0.4 0
16.2 0.4 0
16.5 0.4 0
16.8 0.4 0
17.1 0.4 0
17.4 0.4 0
17.7 0.4 0
18 0.4 0
18.3 0.4 0
18.6 0.4 0
18.9 0.4 0
19.2 0.4 0
19.5 0.4 0
19.8 0.4 0
20.1 0.4 0
20.4 0.4 0
20.7 0.4 0
21 0.4 0
21.3 0.4 0
21.6 0.4 0
21.9 0.4 0
22.2 0.4 0
22.5 0.4 0
22.8 0.4 0
23.1 0.4 0
23.4 0.4 0
23.7 0.4 0
24 0.4 0
24.3 0.4 0
24.6 0.4 0
24.9 0.4 0
25.2 0.4 0
25.5 0.4 0
25.8 0.4 0
26.1 0.4 0
26.4 0.4 0
26.7 0.4 0
27 0.4 0
27.3 0.4 0
27.6 0.4 0
27.9 0.4 0
28.2 0.4 0
28.5 0.4 0
28.8 0.4 0
29.1 0.4 0
29.4 0.4 0
29.7 0.4 0
30 0.4 0
30.3 0.4 0
0 0.5 0
0.3 0.5 0
0.6 0.5 0
0.9 0.5 0
1.2 0.5 0
1.5 0.5 0
1.8 0.5 0
2.1 0.5 0
2.4 0.5 0
2.7 0.5 0
3 0.5 0
3.3 0.5 0
3.6 0.5 0
3.9 0.5 0
4.2 0.5 0
4.5 0.5 0
4.8 0.5 0
5.1 0.5 0
5.4 0.5 0
5.7 0.5 0
6 0.5 0
6.3 0.5 0
6.6 0.5 0
6.9 0.5 0
7.2 0.5 0
7.5 0.5 0
7.8 0.5 0
8.1 0.5 0
8.4 0.5 0
8.7 0.5 0
9 0.5 0
9.3 0.5 0
9.6 0.5 0
9.9 0.5 0
10.2 0.5 0
10.5 0.5 0
10.8 0.5 0
11.1 0.5 0
11.4 0.5 0
11.7 0.5 0
12 0.5 0
12.3 0.5 0
12.6 0.5 0
12.9 0.5 0
13.2 0.5 0
13.5 0.5 0
13.8 0.5 0
14.1 0.5 0
14.4 0.5 0
14.7 0.5 0
15 0.5 0
15.3 0.5 0
15.6 0.5 0
15.9 0.5 0
16.2 0.5 0
16.5 0.5 0
16.8 0.5 0
17.1 0.5 0
17.4 0.5 0
17.7 0.5 0
18 0.5 0
18.3 0.5 0
18.6 0.5 0
18.9 0.5 0
19.2 0.5 0
19.5 0.5 0
19.8 0.5 0
20.1 0.5 0
20.4 0.5 0
20.7 0.5 0
21 0.5 0
21.3 0.5 0
21.6 0.5 0
21.9 0.5 0
22.2 0.5 0
22.5 0.5 0
22.8 0.5 0
23.1 0.5 0
23.4 0.5 0
23.7 0.5 0
24 0.5 0
24.3 0.5 0
24.6 0.5 0
24.9 0.5 0
25.2 0.5 0
25.5 0.5 0
25.8 0.5 0
26.1 0.5 0
26.4 0.5 0
26.7 0.5 0
27 0.5 0
27.3 0.5 0
27.6 0.5 0
27.9 0.5 0
28.2 0.5 0
28.5 0.5 0
28.8 0.5 0
29.1 0.5 0
29.4 0.5 0
29.7 0.5 0
30 0.5 0
30.3 0.5 0
0 0.6 0
0.3 0.6 0
0.6 0.6 0
0.9 0.6 0
1.2 0.6 0
1.5 0.6 0
1.8 0.6 0
2.1 0.6 0
2.4 0.6 0
2.7 0.6 0
3 0.6 0
3.3 0.6 0
3.6 0.6 0
3.9 0.6 0
4.2 0.6 0
4.5 0.6 0
4.8 0.6 0
5.1 0.6 0
5.4 0.6 0
5.7 0.6 0
6 0.6 0
6.3 0.6 0
6.6 0.6 0
6.9 0.6 0
7.2 0.6 0
7.5 0.6 0
7.8 0.6 0
8.1 0.6 0
8.4 0.6 0
8.7 0.6 0
9 0.6 0
9.3 0.6 0
9.6 0.6 0
9.9 0.6 0
10.2 0.6 0
10.5 0.6 0
10.8 0.6 0
11.1 0.6 0
11.4 0.6 0
11.7 0.6 0
12 0.6 0
12.3 0.6 0
12.6 0.6 0
12.9 0.6 0
13.2 0.6 0
13.5 0.6 0
13.8 0.6 0
14.1 0.6 0
14.4 0.6 0
14.7 0.6 0
15 0.6 0
15.3 0.6 0
15.6 0.6 0
15.9 0.6 0
16.2 0.6 0
16.5 0.6 0
16.8 0.6 0
17.1 0.6 0
17.4 0.6 0
17.7 0.6 0
18 0.6 0
18.3 0.6 0
18.6 0.6 0
18.9 0.6 0
19.2 0.6 0
19.5 0.6 0
19.8 0.6 0
20.1 0.6 0
20.4 0.6 0
20.7 0.6 0
21 0.6 0
21.3 0.6 0
21.6 0.6 0
21.9 0.6 0
22.2 0.6 0
22.5 0.6 0
22.8 0.6 0
23.1 0.6 0
23.4 0.6 0
23.7 0.6 0
24 0.6 0
24.3 0.6 0
24.6 0.6 0
24.9 0.6 0
25.2 0.6 0
25.5 0.6 0
25.8 0.6 0
26.1 0.6 0
26.4 0.6 0
26.7 0.6 0
27 0.6 0
27.3 0.6 0
27.6 0.6 0
27.9 0.6 0
28.2 0.6 0
28.5 0.6 0
28.8 0.6 0
29.1 0.6 0
29.4 0.6 0
29.7 0.6 0
30 0.6 0
30.3 0.6 0
0 0.7 0
0.3 0.7 0
0.6 0.7 0
0.9 0.7 0
1.2 0.7 0
1.5 0.7 0
1.8 0.7 0
2.1 0.7 0
2.4 0.7 0
2.7 0.7 0
3 0.7 0
3.3 0.7 0
3.6 0.7 0
3.9 0.7 0
4.2 0.7 0
4.5 0.7 0
4.8 0.7 0
5.1 0.7 0
5.4 0.7 0
5.7 0.7 0
6 0.7 0
6.3 0.7 0
6.6 0.7 0
6.9 0.7 0
7.2 0.7 0
7.5 0.7 0
7.8 0.7 0
8.1 0.7 0
8.4 0.7 0
8.7 0.7 0
9 0.7 0
9.3 0.7 0
9.6 0.7 0
9.9 0.7 0
10.2 0.7 0
10.5 0.7 0
10.8 0.7 0
11.1 0.7 0
11.4 0.7 0
11.7 0.7 0
12 0.7 0
12.3 0.7 0
12.6 0.7 0
12.9 0.7 0
13.2 0.7 0
13.5 0.7 0
13.8 0.7 0
14.1 0.7 0
14.4 0.7 0
14.7 0.7 0
15 0.7 0
15.3 0.7 0
15.6 0.7 0
15.9 0.7 0
16.2 0.7 0
16.5 0.7 0
16.8 0.7 0
17.1 0.7 0
17.4 0.7 0
17.7 0.7 0
18 0.7 0
18.3 0.7 0
18.6 0.7 0
18.9 0.7 0
19.2 0.7 0
19.5 0.7 0
19.8 0.7 0
20.1 0.7 0
20.4 0.7 0
20.7 0.7 0
21 0.7 0
21.3 0.7 0
21.6 0.7 0
21.9 0.7 0
22.2 0.7 0
22.5 0.7 0
22.8 0.7 0
23.1 0.7 0
23.4 0.7 0
23.7 0.7 0
24 0.7 0
24.3 0.7 0
24.6 0.7 0
24.9 0.7 0
25.2 0.7 0
25.5 0.7 0
25.8 0.7 0
26.1 0.7 0
26.4 0.7 0
26.7 0.7 0
27 0.7 0
27.3 0.7 0
27.6 0.7 0
27.9 0.7 0
28.2 0.7 0
28.5 0.7 0
28.8 0.7 0
29.1 0.7 0
29.4 0.7 0
29.7 0.7 0
30 0.7 0
30.3 0.7 0
0 0.8 0
0.3 0.8 0
0.6 0.8 0
0.9 0.8 0
1.2 0.8 0
1.5 0.8 0
1.8 0.8 0
2.1 0.8 0
2.4 0.8 0
2.7 0.8 0
3 0.8 0
3.3 0.8 0
3.6 0.8 0
3.9 0.8 0
4.2 0.8 0
4.5 0.8 0
4.8 0.8 0
5.1 0.8 0
5.4 0.8 0
5.7 0.8 0
6 0.8 0
6.3 0.8 0
6.6 0.8 0
6.9 0.8 0
7.2 0.8 0
7.5 0.8 0
7.8 0.8 0
8.1 0.8 0
8.4 0.8 0
8.7 0.8 0
9 0.8 0
9.3 0.8 0
9.6 0.8 0
9.9 0.8 0
10.2 0.8 0
10.5 0.8 0
10.8 0.8 0
11.1 0.8 0
11.4 0.8 0
11.7 0.8 0
12 0.8 0
12.3 0.8 0
12.6 0.8 0
12.9 0.8 0
13.2 0.8 0
13.5 0.8 0
13.8 0.8 0
14.1 0.8 0
14.4 0.8 0
14.7 0.8 0
15 0.8 0
15.3 0.8 0
15.6 0.8 0
15.9 0.8 0
16.2 0.8 0
16.5 0.8 0
16.8 0.8 0
17.1 0.8 0
17.4 0.8 0
17.7 0.8 0
18 0.8 0
18.3 0.8 0
18.6 0.8 0
18.9 0.8 0
19.2 0.8 0
19.5 0.8 0
19.8 0.8 0
20.1 0.8 0
20.4 0.8 0
20.7 0.8 0
21 0.8 0
21.3 0.8 0
21.6 0.8 0
21.9 0.8 0
22.2 0.8 0
22.5 0.8 0
22.8 0.8 0
23.1 0.8 0
23.4 0.8 0
23.7 0.8 0
24 0.8 0
24.3 0.8 0
24.6 0.8 0
24.9 0.8 0
25.2 0.8 0
25.5 0.8 0
25.8 0.8 0
26.1 0.8 0
26.4 0.8 0
26.7 0.8 0
27 0.8 0
27.3 0.8 0
27.6 0.8 0
27.9 0.8 0
28.2 0.8 0
28.5 0.8 0
28.8 0.8 0
29.1 0.8 0
29.4 0.8 0
29.7 0.8 0
30 0.8 0
30.3 0.8 0
0 0.9 0
0.3 0.9 0
0.6 0.9 0
0.9 0.9 0
1.2 0.9 0
1.5 0.9 0
1.8 0.9 0
2.1 0.9 0
2.4 0.9 0
2.7 0.9 0
3 0.9 0
3.3 0.9 0
3.6 0.9 0
3.9 0.9 0
4.2 0.9 0
4.5 0.9 0
4.8 0.9 0
5.1 0.9 0
5.4 0.9 0
5.7 0.9 0
6 0.9 0
6.3 0.9 0
6.6 0.9 0
6.9 0.9 0
7.2 0.9 0
7.5 0.9 0
7.8 0.9 0
8.1 0.9 0
8.4 0.9 0
8.7 0.9 0
9 0.9 0
9.3 0.9 0
9.6 0.9 0
9.9 0.9 0
10.2 0.9 0
10.5 0.9 0
10.8 0.9 0
11.1 0.9 0
11.4 0.9 0
11.7 0.9 0
12 0.9 0
12.3 0.9 0
12.6 0.9 0
12.9 0.9 0
13.2 0.9 0
13.5 0.9 0
13.8 0.9 0
14.1 0.9 0
14.4 0.9 0
14.7 0.9 0
15 0.9 0
15.3 0.9 0
15.6 0.9 0
15.9 0.9 0
16.2 0.9 0
16.5 0.9 0
16.8 0.9 0
17.1 0.9 0
17.4 0.9 0
17.7 0.9 0
18 0.9 0
18.3 0.9 0
18.6 0.9 0
18.9 0.9 0
19.2 0.9 0
19.5 0.9 0
19.8 0.9 0
20.1 0.9 0
20.4 0.9 0
20.7 0.9 0
21 0.9 0
21.3 0.9 0
21.6 0.9 0
21.9 0.9 0
22.2 0.9 0
22.5 0.9 0
22.8 0.9 0
23.1 0.9 0
23.4 0.9 0
23.7 0.9 0
24 0.9 0
24.3 0.9 0
24.6 0.9 0
24.9 0.9 0
25.2 0.9 0
25.5 0.9 0
25.8 0.9 0
26.1 0.9 0
26.4 0.9 0
26.7 0.9 0
27 0.9 0
27.3 0.9 0
27.6 0.9 0
27.9 0.9 0
28.2 0.9 0
28.5 0.9 0
28.8 0.9 0
29.1 0.9 0
29.4 0.9 0
29.7 0.9 0
30 0.9 0
30.3 0.9 0
0 1 0
0.3 1 0
0.6 1 0
0.9 1 0
1.2 1 0
1.5 1 0
1.8 1 0
2.1 1 0
2.4 1 0
2.7 1 0
3 1 0
3.3 1 0
3.6 1 0
3.9 1 0
4.2 1 0
4.5 1 0
4.8 1 0
5.1 1 0
5.4 1 0
5.7 1 0
6 1 0
6.3 1 0
6.6 1 0
6.9 1 0
7.2 1 0
7.5 1 0
7.8 1 0
8.1 1 0
8.4 1 0
8.7 1 0
9 1 0
9.3 1 0
9.6 1 0
9.9 1 0
10.2 1 0
10.5 1 0
10.8 1 0
11.1 1 0
11.4 1 0
11.7 1 0
12 1 0
12.3 1 0
12.6 1 0
12.9 1 0
13.2 1 0
13.5 1 0
13.8 1 0
14.1 1 0
14.4 1 0
14.7 1 0
15 1 0
15.3 1 0
15.6 1 0
15.9 1 0
16.2 1 0
16.5 1 0
16.8 1 0
17.1 1 0
17.4 1 0
17.7 1 0
18 1 0
18.3 1 0
18.6 1 0
18.9 1 0
19.2 1 0
19.5 1 0
19.8 1 0
20.1 1 0
20.4 1 0
20.7 1 0
21 1 0
21.3 1 0
21.6 1 0
21.9 1 0
22.2 1 0
22.5 1 0
22.8 1 0
23.1 1 0
23.4 1 0
23.7 1 0
24 1 0
24.3 1 0
24.6 1 0
24.9 1 0
25.2 1 0
25.5 1 0
25.8 1 0
26.1 1 0
26.4 1 0
26.7 1 0
27 1 0
27.3 1 0
27.6 1 0
27.9 1 0
28.2 1 0
28.5 1 0
28.8 1 0
29.1 1 0
29.4 1 0
29.7 1 0
30 1 0
30.3 1 0
0 1.1 0
0.3 1.1 0
0.6 1.1 0
0.9 1.1 0
1.2 1.1 0
1.5 1.1 0
1.8 1.1 0
2.1 1.1 0
2.4 1.1 0
2.7 1.1 0
3 1.1 0
3.3 1.1 0
3.6 1.1 0
3.9 1.1 0
4.2 1.1 0
4.5 1.1 0
4.8 1.1 0
5.1 1.1 0
5.4 1.1 0
5.7 1.1 0
6 1.1 0
6.3 1.1 0
6.6 1.1 0
6.9 1.1 0
7.2 1.1 0
7.5 1.1 0
7.8 1.1 0
8.1 1.1 0
8.4 1.1 0
8.7 1.1 0
9 1.1 0
9.3 1.1 0
9.6 1.1 0
9.9 1.1 0
10.2 1.1 0
10.5 1.1 0
10.8 1.1 0
11.1 1.1 0
11.4 1.1 0
11.7 1.1 0
12 1.1 0
12.3 1.1 0
12.6 1.1 0
12.9 1.1 0
13.2 1.1 0
13.5 1.1 0
13.8 1.1 0
14.1 1.1 0
14.4 1.1 0
14.7 1.1 0
15 1.1 0
15.3 1.1 0
15.6 1.1 0
15.9 1.1 0
16.2 1.1 0
16.5 1.1 0
16.8 1.1 0
17.1 1.1 0
17.4 1.1 0
17.7 1.1 0
18 1.1 0
18.3 1.1 0
18.6 1.1 0
18.9 1.1 0
19.2 1.1 0
19.5 1.1 0
19.8 1.1 0
20.1 1.1 0
20.4 1.1 0
20.7 1.1 0
21 1.1 0
21.3 1.1 0
21.6 1.1 0
21.9 1.1 0
22.2 1.1 0
22.5 1.1 0
22.8 1.1 0
23.1 1.1 0
23.4 1.1 0
23.7 1.1 0
24 1.1 0
24.3 1.1 0
24.6 1.1 0
24.9 1.1 0
25.2 1.1 0
25.5 1.1 0
25.8 1.1 0
26.1 1.1 0
26.4 1.1 0
26.7 1.1 0
27 1.1 0
27.3 1.1 0
27.6 1.1 0
27.9 1.1 0
28.2 1.1 0
28.5 1.1 0
28.8 1.1 0
29.1 1.1 0
29.4 1.1 0
29.7 1.1 0
30 1.1 0
30.3 1.1 0

POINT_DATA 1224

SCALARS u double
LOOKUP_TABLE default
-1
-0.890155
-0.775928
-0.678686
-0.600314
-0.539058
-0.492138
-0.456612
-0.429788
-0.409424
-0.393769
-0.381516
-0.371723
-0.363721
-0.357042
-0.35136
-0.346447
-0.342139
-0.338321
-0.334906
-0.33183
-0.329043
-0.326507
-0.324189
-0.322065
-0.320114
-0.318319
-0.316669
-0.315155
-0.313772
-0.312517
-0.311389
-0.310386
-0.309508
-0.30875
-0.308107
-0.307573
-0.307136
-0.306786
-0.306512
-0.306302
-0.306143
-0.306027
-0.305942
-0.305883
-0.305841
-0.305813
-0.305795
-0.305782
-0.305775
-0.30577
-0.305767
-0.305765
-0.305764
-0.305763
-0.305763
-0.305763
-0.305763
-0.305763
-0.305763
-0.305762
-0.305762
-0.305763
-0.305763
-0.305763
-0.305763
-0.305763
-0.305763
-0.305763
-0.305763
-0.305763
-0.305763
-0.305763
-0.305763
-0.305763
-0.305763
-0.305763
-0.305763
-0.305763
-0.305763
-0.305763
-0.305763
-0.305763
-0.305763
-0.305763
-0.305763
-0.305763
-0.305763
-0.305763
-0.305763
-0.305763
-0.305763
-0.305763
-0.305763
-0.305763
-0.305763
-0.305763
-0.305765
-0.305767
-0.305771
-0.305771
-1
1
0.890155
0.775928
0.678686
0.600314
0.539058
0.492138
0.456612
0.429788
0.409424
0.393769
0.381516
0.371723
0.363721
0.357042
0.35136
0.346447
0.342139
0.338321
0.334906
0.33183
0.329043
0.326507
0.324189
0.322065
0.320114
0.318319
0.316669
0.315155
0.313772
0.312517
0.311389
0.310386
0.309508
0.30875
0.308107
0.307573
0.307136
0.306786
0.306512
0.306302
0.306143
0.306027
0.305942
0.305883
0.305841
0.305813
0.305795
0.305782
0.305775
0.30577
0.305767
0.305765
0.305764
0.305763
0.305763
0.305763
0.305763
0.305763
0.305763
0.305762
0.305762
0.305763
0.305763
0.305763
0.305763
0.305763
0.305763
0.305763
0.305763
0.305763
0.305763
0.305763
0.305763
0.305763
0.305763
0.305763
0.305763
0.305763
0.305763
0.305763
0.305763
0.305763
0.305763
0.305763
0.305763
0.305763
0.305763
0.305763
0.305763
0.305763
0.305763
0.305763
0.305763
0.305763
0.305763
0.305763
0.305765
0.305767
0.305771
0.305771
1
1
1.02798
1.03242
1.02466
1.01102
0.994783
0.977789
0.961059
0.945139
0.930292
0.916614
0.904107
0.892723
0.882386
0.873008
0.8645
0.856777
0.849757
0.843366
0.837537
0.832212
0.827338
0.822869
0.818763
0.814986
0.811509
0.808309
0.805367
0.802671
0.800212
0.797987
0.795992
0.794225
0.79268
0.791351
0.790227
0.789294
0.788533
0.787926
0.78745
0.787086
0.786812
0.786611
0.786466
0.786363
0.786292
0.786244
0.786213
0.786192
0.786179
0.78617
0.786165
0.786162
0.786161
0.78616
0.786159
0.786159
0.786158
0.786158
0.786158
0.786158
0.786158
0.786158
0.786158
0.786158
0.786158
0.786159
0.786159
0.786159
0.786159
0.786159
0.786159
0.786159
0.786159
0.786159
0.786159
0.786159
0.786159
0.786159
0.786159
0.786159
0.786159
0.786159
0.786159
0.786159
0.786159
0.786159
0.786159
0.786159
0.786159
0.786159
0.786159
0.786159
0.786159
0.786159
0.786159
0.786159
0.786161
0.78616
0.786201
0.786201
1
1
1.03305
1.06793
1.0968
1.11906
1.13542
1.14691
1.1546
1.15942
1.16214
1.16336
1.1635
1.16291
1.1618
1.16036
1.1587
1.15691
1.15506
1.15319
1.15132
1.1495
1.14772
1.14601
1.14436
1.14279
1.1413
1.13988
1.13854
1.13729
1.13611
1.13502
1.13402
1.13311
1.13229
1.13155
1.13091
1.13035
1.12988
1.12949
1.12917
1.12892
1.12872
1.12856
1.12845
1.12836
1.1283
1.12826
1.12823
1.12821
1.1282
1.12819
1.12818
1.12818
1.12818
1.12818
1.12818
1.12818
1.12818
1.12818
1.12818
1.12818
1.12818
1.12818
1.12818
1.12818
1.12818
1.12818
1.12818
1.12818
1.12818
1.12818
1.12818
1.12818
1.12818
1.12818
1.12818
1.12818
1.12818
1.12818
1.12818
1.12818
1.12818
1.12818
1.12818
1.12818
1.12818
1.12818
1.12818
1.12818
1.12818
1.12818
1.12818
1.12818
1.12818
1.12818
1.12818
1.12818
1.12818
1.12818
1.1282
1.1282
1
1
1.02627
1.06424
1.10183
1.13558
1.16458
1.18891
1.20913
1.22592
1.23995
1.25177
1.26185
1.27053
1.27809
1.28474
1.29062
1.29585
1.30054
1.30475
1.30855
1.31199
1.31511
1.31795
1.32055
1.32292
1.32508
1.32707
1.32888
1.33054
1.33204
1.33339
1.3346
1.33566
1.33659
1.33737
1.33803
1.33857
1.33901
1.33935
1.33961
1.33981
1.33995
1.34005
1.34012
1.34017
1.3402
1.34023
1.34024
1.34025
1.34025
1.34025
1.34025
1.34026
1.34026
1.34026
1.34026
1.34026
1.34026
1.34026
1.34026
1.34026
1.34026
1.34026
1.34026
1.34026
1.34026
1.34026
1.34026
1.34026
1.34026
1.34026
1.34026
1.34026
1.34026
1.34026
1.34026
1.34026
1.34026
1.34026
1.34026
1.34026
1.34026
1.34026
1.34026
1.34026
1.34026
1.34026
1.34026
1.34026
1.34026
1.34026
1.34026
1.34026
1.34026
1.34026
1.34026
1.34026
1.34026
1.34026
1.34024
1.34024
1
1
1.02256
1.05948
1.09803
1.13402
1.16616
1.19425
1.21859
1.23973
1.25819
1.27449
1.28903
1.30212
1.314
1.32485
1.33482
1.34401
1.35251
1.36038
1.36768
1.37447
1.38079
1.38666
1.39214
1.39724
1.402
1.40643
1.41054
1.41435
1.41786
1.42108
1.424
1.42662
1.42894
1.43098
1.43273
1.43421
1.43544
1.43645
1.43726
1.43789
1.43838
1.43875
1.43902
1.43922
1.43936
1.43946
1.43953
1.43957
1.4396
1.43962
1.43963
1.43964
1.43965
1.43965
1.43965
1.43965
1.43965
1.43965
1.43965
1.43965
1.43965
1.43965
1.43965
1.43965
1.43965
1.43965
1.43965
1.43965
1.43965
1.43965
1.43965
1.43965
1.43965
1.43965
1.43965
1.43965
1.43965
1.43965
1.43965
1.43965
1.43965
1.43965
1.43965
1.43965
1.43965
1.43965
1.43965
1.43965
1.43965
1.43965
1.43965
1.43965
1.43965
1.43965
1.43965
1.43965
1.43965
1.43965
1.4396
1.4396
1
1
1.02256
1.05948
1.09803
1.13402
1.16616
1.19425
1.21859
1.23973
1.25819
1.27449
1.28903
1.30212
1.314
1.32485
1.33482
1.34401
1.35251
1.36038
1.36768
1.37447
1.38079
1.38666
1.39214
1.39724
1.402
1.40643
1.41054
1.41435
1.41786
1.42108
1.424
1.42662
1.42894
1.43098
1.43273
1.43421
1.43544
1.43645
1.43726
1.43789
1.43838
1.43875
1.43902
1.43922
1.43936
1.43946
1.43953
1.43957
1.4396
1.43962
1.43963
1.43964
1.43965
1.43965
1.43965
1.43965
1.43965
1.43965
1.43965
1.43965
1.43965
1.43965
1.43965
1.43965
1.43965
1.43965
1.43965
1.43965
1.43965
1.43965
1.43965
1.43965
1.43965
1.43965
1.43965
1.43965
1.43965
1.43965
1.43965
1.43965
1.43965
1.43965
1.43965
1.43965
1.43965
1.43965
1.43965
1.43965
1.43965
1.43965
1.43965
1.43965
1.43965
1.43965
1.43965
1.43965
1.43965
1.43965
1.4396
1.4396
1
1
1.02627
1.06424
1.10183
1.13558
1.16458
1.18891
1.20913
1.22592
1.23995
1.25177
1.26185
1.27053
1.2781
1.28474
1.29062
1.29585
1.30054
1.30475
1.30855
1.31199
1.31511
1.31795
1.32055
1.32292
1.32508
1.32707
1.32888
1.33054
1.33204
1.33339
1.3346
1.33566
1.33659
1.33737
1.33803
1.33857
1.33901
1.33935
1.33961
1.33981
1.33995
1.34005
1.34012
1.34017
1.3402
1.34023
1.34024
1.34025
1.34025
1.34025
1.34025
1.34026
1.34026
1.34026
1.34026
1.34026
1.34026
1.34026
1.34026
1.34026
1.34026
1.34026
1.34026
1.34026
1.34026
1.34026
1.34026
1.34026
1.34026
1.34026
1.34026
1.34026
1.34026
1.34026
1.34026
1.34026
1.34026
1.34026
1.34026
1.34026
1.34026
1.34026
1.34026
1.34026
1.34026
1.34026
1.34026
1.34026
1.34026
1.34026
1.34026
1.34026
1.34026
1.34026
1.34026
1.34026
1.34026
1.34025
1.34024
1.34024
1
1
1.03305
1.06793
1.0968
1.11906
1.13542
1.14691
1.1546
1.15942
1.16214
1.16336
1.1635
1.16291
1.1618
1.16036
1.1587
1.15691
1.15506
1.15319
1.15133
1.1495
1.14772
1.14601
1.14436
1.14279
1.1413
1.13988
1.13854
1.13729
1.13611
1.13503
1.13402
1.13311
1.13229
1.13155
1.13091
1.13036
1.12989
1.12949
1.12917
1.12892
1.12872
1.12856
1.12845
1.12836
1.1283
1.12826
1.12823
1.12821
1.1282
1.12819
1.12818
1.12818
1.12818
1.12818
1.12818
1.12818
1.12818
1.12818
1.12818
1.12818
1.12818
1.12818
1.12818
1.12818
1.12818
1.12818
1.12818
1.12818
1.12818
1.12818
1.12818
1.12818
1.12818
1.12818
1.12818
1.12818
1.12818
1.12818
1.12818
1.12818
1.12818
1.12818
1.12818
1.12818
1.12818
1.12818
1.12818
1.12818
1.12818
1.12818
1.12818
1.12818
1.12818
1.12818
1.12818
1.12818
1.12818
1.12818
1.1282
1.1282
1
1
1.02798
1.03242
1.02466
1.01102
0.994783
0.977789
0.96106
0.94514
0.930292
0.916614
0.904108
0.892723
0.882386
0.873008
0.864501
0.856778
0.849757
0.843366
0.837538
0.832213
0.827339
0.822869
0.818764
0.814987
0.81151
0.808309
0.805367
0.802671
0.800213
0.797988
0.795993
0.794225
0.792681
0.791352
0.790228
0.789295
0.788534
0.787927
0.787451
0.787086
0.786813
0.786611
0.786466
0.786364
0.786293
0.786245
0.786213
0.786192
0.786179
0.786171
0.786166
0.786163
0.786161
0.78616
0.786159
0.786159
0.786159
0.786159
0.786159
0.786159
0.786159
0.786159
0.786159
0.786159
0.786159
0.786159
0.786159
0.786159
0.786159
0.786159
0.786159
0.786159
0.786159
0.786159
0.786159
0.786159
0.786159
0.786159
0.786159
0.786159
0.786159
0.786159
0.786159
0.786159
0.786159
0.786159
0.786159
0.786159
0.786159
0.786159
0.786159
0.786159
0.786159
0.786159
0.786159
0.786159
0.786161
0.78616
0.786201
0.786201
1
1
0.890155
0.775928
0.678686
0.600315
0.539058
0.492138
0.456612
0.429788
0.409424
0.393769
0.381517
0.371723
0.363721
0.357042
0.351361
0.346447
0.34214
0.338321
0.334906
0.33183
0.329044
0.326507
0.32419
0.322066
0.320114
0.31832
0.31667
0.315156
0.313773
0.312518
0.311389
0.310387
0.309508
0.30875
0.308108
0.307573
0.307136
0.306787
0.306513
0.306302
0.306144
0.306027
0.305943
0.305883
0.305842
0.305814
0.305795
0.305783
0.305775
0.30577
0.305767
0.305765
0.305764
0.305764
0.305763
0.305763
0.305763
0.305763
0.305763
0.305763
0.305763
0.305763
0.305763
0.305763
0.305763
0.305763
0.305763
0.305763
0.305763
0.305763
0.305763
0.305763
0.305763
0.305763
0.305763
0.305763
0.305763
0.305763
0.305763
0.305763
0.305763
0.305763
0.305763
0.305763
0.305763
0.305763
0.305763
0.305763
0.305763
0.305763
0.305763
0.305763
0.305763
0.305763
0.305763
0.305763
0.305765
0.305767
0.305771
0.305771
1
-1
-0.890155
-0.775928
-0.678686
-0.600315
-0.539058
-0.492138
-0.456612
-0.429788
-0.409424
-0.393769
-0.381517
-0.371723
-0.363721
-0.357042
-0.351361
-0.346447
-0.34214
-0.338321
-0.334906
-0.33183
-0.329044
-0.326507
-0.32419
-0.322066
-0.320114
-0.31832
-0.31667
-0.315156
-0.313773
-0.312518
-0.311389
-0.310387
-0.309508
-0.30875
-0.308108
-0.307573
-0.307136
-0.306787
-0.306513
-0.306302
-0.306144
-0.306027
-0.305943
-0.305883
-0.305842
-0.305814
-0.305795
-0.305783
-0.305775
-0.30577
-0.305767
-0.305765
-0.305764
-0.305764
-0.305763
-0.305763
-0.305763
-0.305763
-0.305763
-0.305763
-0.305763
-0.305763
-0.305763
-0.305763
-0.305763
-0.305763
-0.305763
-0.305763
-0.305763
-0.305763
-0.305763
-0.305763
-0.305763
-0.305763
-0.305763
-0.305763
-0.305763
-0.305763
-0.305763
-0.305763
-0.305763
-0.305763
-0.305763
-0.305763
-0.305763
-0.305763
-0.305763
-0.305763
-0.305763
-0.305763
-0.305763
-0.305763
-0.305763
-0.305763
-0.305763
-0.305763
-0.305765
-0.305767
-0.305771
-0.305771
-1
