# vtk DataFile Version 2.0
FlowField
ASCII
DATASET STRUCTURED_GRID
DIMENSIONS 102 12 1 
POINTS 1224 double
0 0 0
0.3 0 0
0.6 0 0
0.9 0 0
1.2 0 0
1.5 0 0
1.8 0 0
2.1 0 0
2.4 0 0
2.7 0 0
3 0 0
3.3 0 0
3.6 0 0
3.9 0 0
4.2 0 0
4.5 0 0
4.8 0 0
5.1 0 0
5.4 0 0
5.7 0 0
6 0 0
6.3 0 0
6.6 0 0
6.9 0 0
7.2 0 0
7.5 0 0
7.8 0 0
8.1 0 0
8.4 0 0
8.7 0 0
9 0 0
9.3 0 0
9.6 0 0
9.9 0 0
10.2 0 0
10.5 0 0
10.8 0 0
11.1 0 0
11.4 0 0
11.7 0 0
12 0 0
12.3 0 0
12.6 0 0
12.9 0 0
13.2 0 0
13.5 0 0
13.8 0 0
14.1 0 0
14.4 0 0
14.7 0 0
15 0 0
15.3 0 0
15.6 0 0
15.9 0 0
16.2 0 0
16.5 0 0
16.8 0 0
17.1 0 0
17.4 0 0
17.7 0 0
18 0 0
18.3 0 0
18.6 0 0
18.9 0 0
19.2 0 0
19.5 0 0
19.8 0 0
20.1 0 0
20.4 0 0
20.7 0 0
21 0 0
21.3 0 0
21.6 0 0
21.9 0 0
22.2 0 0
22.5 0 0
22.8 0 0
23.1 0 0
23.4 0 0
23.7 0 0
24 0 0
24.3 0 0
24.6 0 0
24.9 0 0
25.2 0 0
25.5 0 0
25.8 0 0
26.1 0 0
26.4 0 0
26.7 0 0
27 0 0
27.3 0 0
27.6 0 0
27.9 0 0
28.2 0 0
28.5 0 0
28.8 0 0
29.1 0 0
29.4 0 0
29.7 0 0
30 0 0
30.3 0 0
0 0.1 0
0.3 0.1 0
0.6 0.1 0
0.9 0.1 0
1.2 0.1 0
1.5 0.1 0
1.8 0.1 0
2.1 0.1 0
2.4 0.1 0
2.7 0.1 0
3 0.1 0
3.3 0.1 0
3.6 0.1 0
3.9 0.1 0
4.2 0.1 0
4.5 0.1 0
4.8 0.1 0
5.1 0.1 0
5.4 0.1 0
5.7 0.1 0
6 0.1 0
6.3 0.1 0
6.6 0.1 0
6.9 0.1 0
7.2 0.1 0
7.5 0.1 0
7.8 0.1 0
8.1 0.1 0
8.4 0.1 0
8.7 0.1 0
9 0.1 0
9.3 0.1 0
9.6 0.1 0
9.9 0.1 0
10.2 0.1 0
10.5 0.1 0
10.8 0.1 0
11.1 0.1 0
11.4 0.1 0
11.7 0.1 0
12 0.1 0
12.3 0.1 0
12.6 0.1 0
12.9 0.1 0
13.2 0.1 0
13.5 0.1 0
13.8 0.1 0
14.1 0.1 0
14.4 0.1 0
14.7 0.1 0
15 0.1 0
15.3 0.1 0
15.6 0.1 0
15.9 0.1 0
16.2 0.1 0
16.5 0.1 0
16.8 0.1 0
17.1 0.1 0
17.4 0.1 0
17.7 0.1 0
18 0.1 0
18.3 0.1 0
18.6 0.1 0
18.9 0.1 0
19.2 0.1 0
19.5 0.1 0
19.8 0.1 0
20.1 0.1 0
20.4 0.1 0
20.7 0.1 0
21 0.1 0
21.3 0.1 0
21.6 0.1 0
21.9 0.1 0
22.2 0.1 0
22.5 0.1 0
22.8 0.1 0
23.1 0.1 0
23.4 0.1 0
23.7 0.1 0
24 0.1 0
24.3 0.1 0
24.6 0.1 0
24.9 0.1 0
25.2 0.1 0
25.5 0.1 0
25.8 0.1 0
26.1 0.1 0
26.4 0.1 0
26.7 0.1 0
27 0.1 0
27.3 0.1 0
27.6 0.1 0
27.9 0.1 0
28.2 0.1 0
28.5 0.1 0
28.8 0.1 0
29.1 0.1 0
29.4 0.1 0
29.7 0.1 0
30 0.1 0
30.3 0.1 0
0 0.2 0
0.3 0.2 0
0.6 0.2 0
0.9 0.2 0
1.2 0.2 0
1.5 0.2 0
1.8 0.2 0
2.1 0.2 0
2.4 0.2 0
2.7 0.2 0
3 0.2 0
3.3 0.2 0
3.6 0.2 0
3.9 0.2 0
4.2 0.2 0
4.5 0.2 0
4.8 0.2 0
5.1 0.2 0
5.4 0.2 0
5.7 0.2 0
6 0.2 0
6.3 0.2 0
6.6 0.2 0
6.9 0.2 0
7.2 0.2 0
7.5 0.2 0
7.8 0.2 0
8.1 0.2 0
8.4 0.2 0
8.7 0.2 0
9 0.2 0
9.3 0.2 0
9.6 0.2 0
9.9 0.2 0
10.2 0.2 0
10.5 0.2 0
10.8 0.2 0
11.1 0.2 0
11.4 0.2 0
11.7 0.2 0
12 0.2 0
12.3 0.2 0
12.6 0.2 0
12.9 0.2 0
13.2 0.2 0
13.5 0.2 0
13.8 0.2 0
14.1 0.2 0
14.4 0.2 0
14.7 0.2 0
15 0.2 0
15.3 0.2 0
15.6 0.2 0
15.9 0.2 0
16.2 0.2 0
16.5 0.2 0
16.8 0.2 0
17.1 0.2 0
17.4 0.2 0
17.7 0.2 0
18 0.2 0
18.3 0.2 0
18.6 0.2 0
18.9 0.2 0
19.2 0.2 0
19.5 0.2 0
19.8 0.2 0
20.1 0.2 0
20.4 0.2 0
20.7 0.2 0
21 0.2 0
21.3 0.2 0
21.6 0.2 0
21.9 0.2 0
22.2 0.2 0
22.5 0.2 0
22.8 0.2 0
23.1 0.2 0
23.4 0.2 0
23.7 0.2 0
24 0.2 0
24.3 0.2 0
24.6 0.2 0
24.9 0.2 0
25.2 0.2 0
25.5 0.2 0
25.8 0.2 0
26.1 0.2 0
26.4 0.2 0
26.7 0.2 0
27 0.2 0
27.3 0.2 0
27.6 0.2 0
27.9 0.2 0
28.2 0.2 0
28.5 0.2 0
28.8 0.2 0
29.1 0.2 0
29.4 0.2 0
29.7 0.2 0
30 0.2 0
30.3 0.2 0
0 0.3 0
0.3 0.3 0
0.6 0.3 0
0.9 0.3 0
1.2 0.3 0
1.5 0.3 0
1.8 0.3 0
2.1 0.3 0
2.4 0.3 0
2.7 0.3 0
3 0.3 0
3.3 0.3 0
3.6 0.3 0
3.9 0.3 0
4.2 0.3 0
4.5 0.3 0
4.8 0.3 0
5.1 0.3 0
5.4 0.3 0
5.7 0.3 0
6 0.3 0
6.3 0.3 0
6.6 0.3 0
6.9 0.3 0
7.2 0.3 0
7.5 0.3 0
7.8 0.3 0
8.1 0.3 0
8.4 0.3 0
8.7 0.3 0
9 0.3 0
9.3 0.3 0
9.6 0.3 0
9.9 0.3 0
10.2 0.3 0
10.5 0.3 0
10.8 0.3 0
11.1 0.3 0
11.4 0.3 0
11.7 0.3 0
12 0.3 0
12.3 0.3 0
12.6 0.3 0
12.9 0.3 0
13.2 0.3 0
13.5 0.3 0
13.8 0.3 0
14.1 0.3 0
14.4 0.3 0
14.7 0.3 0
15 0.3 0
15.3 0.3 0
15.6 0.3 0
15.9 0.3 0
16.2 0.3 0
16.5 0.3 0
16.8 0.3 0
17.1 0.3 0
17.4 0.3 0
17.7 0.3 0
18 0.3 0
18.3 0.3 0
18.6 0.3 0
18.9 0.3 0
19.2 0.3 0
19.5 0.3 0
19.8 0.3 0
20.1 0.3 0
20.4 0.3 0
20.7 0.3 0
21 0.3 0
21.3 0.3 0
21.6 0.3 0
21.9 0.3 0
22.2 0.3 0
22.5 0.3 0
22.8 0.3 0
23.1 0.3 0
23.4 0.3 0
23.7 0.3 0
24 0.3 0
24.3 0.3 0
24.6 0.3 0
24.9 0.3 0
25.2 0.3 0
25.5 0.3 0
25.8 0.3 0
26.1 0.3 0
26.4 0.3 0
26.7 0.3 0
27 0.3 0
27.3 0.3 0
27.6 0.3 0
27.9 0.3 0
28.2 0.3 0
28.5 0.3 0
28.8 0.3 0
29.1 0.3 0
29.4 0.3 0
29.7 0.3 0
30 0.3 0
30.3 0.3 0
0 0.4 0
0.3 0.4 0
0.6 0.4 0
0.9 0.4 0
1.2 0.4 0
1.5 0.4 0
1.8 0.4 0
2.1 0.4 0
2.4 0.4 0
2.7 0.4 0
3 0.4 0
3.3 0.4 0
3.6 0.4 0
3.9 0.4 0
4.2 0.4 0
4.5 0.4 0
4.8 0.4 0
5.1 0.4 0
5.4 0.4 0
5.7 0.4 0
6 0.4 0
6.3 0.4 0
6.6 0.4 0
6.9 0.4 0
7.2 0.4 0
7.5 0.4 0
7.8 0.4 0
8.1 0.4 0
8.4 0.4 0
8.7 0.4 0
9 0.4 0
9.3 0.4 0
9.6 0.4 0
9.9 0.4 0
10.2 0.4 0
10.5 0.4 0
10.8 0.4 0
11.1 0.4 0
11.4 0.4 0
11.7 0.4 0
12 0.4 0
12.3 0.4 0
12.6 0.4 0
12.9 0.4 0
13.2 0.4 0
13.5 0.4 0
13.8 0.4 0
14.1 0.4 0
14.4 0.4 0
14.7 0.4 0
15 0.4 0
15.3 0.4 0
15.6 0.4 0
15.9 0.4 0
16.2 0.4 0
16.5 0.4 0
16.8 0.4 0
17.1 0.4 0
17.4 0.4 0
17.7 0.4 0
18 0.4 0
18.3 0.4 0
18.6 0.4 0
18.9 0.4 0
19.2 0.4 0
19.5 0.4 0
19.8 0.4 0
20.1 0.4 0
20.4 0.4 0
20.7 0.4 0
21 0.4 0
21.3 0.4 0
21.6 0.4 0
21.9 0.4 0
22.2 0.4 0
22.5 0.4 0
22.8 0.4 0
23.1 0.4 0
23.4 0.4 0
23.7 0.4 0
24 0.4 0
24.3 0.4 0
24.6 0.4 0
24.9 0.4 0
25.2 0.4 0
25.5 0.4 0
25.8 0.4 0
26.1 0.4 0
26.4 0.4 0
26.7 0.4 0
27 0.4 0
27.3 0.4 0
27.6 0.4 0
27.9 0.4 0
28.2 0.4 0
28.5 0.4 0
28.8 0.4 0
29.1 0.4 0
29.4 0.4 0
29.7 0.4 0
30 0.4 0
30.3 0.4 0
0 0.5 0
0.3 0.5 0
0.6 0.5 0
0.9 0.5 0
1.2 0.5 0
1.5 0.5 0
1.8 0.5 0
2.1 0.5 0
2.4 0.5 0
2.7 0.5 0
3 0.5 0
3.3 0.5 0
3.6 0.5 0
3.9 0.5 0
4.2 0.5 0
4.5 0.5 0
4.8 0.5 0
5.1 0.5 0
5.4 0.5 0
5.7 0.5 0
6 0.5 0
6.3 0.5 0
6.6 0.5 0
6.9 0.5 0
7.2 0.5 0
7.5 0.5 0
7.8 0.5 0
8.1 0.5 0
8.4 0.5 0
8.7 0.5 0
9 0.5 0
9.3 0.5 0
9.6 0.5 0
9.9 0.5 0
10.2 0.5 0
10.5 0.5 0
10.8 0.5 0
11.1 0.5 0
11.4 0.5 0
11.7 0.5 0
12 0.5 0
12.3 0.5 0
12.6 0.5 0
12.9 0.5 0
13.2 0.5 0
13.5 0.5 0
13.8 0.5 0
14.1 0.5 0
14.4 0.5 0
14.7 0.5 0
15 0.5 0
15.3 0.5 0
15.6 0.5 0
15.9 0.5 0
16.2 0.5 0
16.5 0.5 0
16.8 0.5 0
17.1 0.5 0
17.4 0.5 0
17.7 0.5 0
18 0.5 0
18.3 0.5 0
18.6 0.5 0
18.9 0.5 0
19.2 0.5 0
19.5 0.5 0
19.8 0.5 0
20.1 0.5 0
20.4 0.5 0
20.7 0.5 0
21 0.5 0
21.3 0.5 0
21.6 0.5 0
21.9 0.5 0
22.2 0.5 0
22.5 0.5 0
22.8 0.5 0
23.1 0.5 0
23.4 0.5 0
23.7 0.5 0
24 0.5 0
24.3 0.5 0
24.6 0.5 0
24.9 0.5 0
25.2 0.5 0
25.5 0.5 0
25.8 0.5 0
26.1 0.5 0
26.4 0.5 0
26.7 0.5 0
27 0.5 0
27.3 0.5 0
27.6 0.5 0
27.9 0.5 0
28.2 0.5 0
28.5 0.5 0
28.8 0.5 0
29.1 0.5 0
29.4 0.5 0
29.7 0.5 0
30 0.5 0
30.3 0.5 0
0 0.6 0
0.3 0.6 0
0.6 0.6 0
0.9 0.6 0
1.2 0.6 0
1.5 0.6 0
1.8 0.6 0
2.1 0.6 0
2.4 0.6 0
2.7 0.6 0
3 0.6 0
3.3 0.6 0
3.6 0.6 0
3.9 0.6 0
4.2 0.6 0
4.5 0.6 0
4.8 0.6 0
5.1 0.6 0
5.4 0.6 0
5.7 0.6 0
6 0.6 0
6.3 0.6 0
6.6 0.6 0
6.9 0.6 0
7.2 0.6 0
7.5 0.6 0
7.8 0.6 0
8.1 0.6 0
8.4 0.6 0
8.7 0.6 0
9 0.6 0
9.3 0.6 0
9.6 0.6 0
9.9 0.6 0
10.2 0.6 0
10.5 0.6 0
10.8 0.6 0
11.1 0.6 0
11.4 0.6 0
11.7 0.6 0
12 0.6 0
12.3 0.6 0
12.6 0.6 0
12.9 0.6 0
13.2 0.6 0
13.5 0.6 0
13.8 0.6 0
14.1 0.6 0
14.4 0.6 0
14.7 0.6 0
15 0.6 0
15.3 0.6 0
15.6 0.6 0
15.9 0.6 0
16.2 0.6 0
16.5 0.6 0
16.8 0.6 0
17.1 0.6 0
17.4 0.6 0
17.7 0.6 0
18 0.6 0
18.3 0.6 0
18.6 0.6 0
18.9 0.6 0
19.2 0.6 0
19.5 0.6 0
19.8 0.6 0
20.1 0.6 0
20.4 0.6 0
20.7 0.6 0
21 0.6 0
21.3 0.6 0
21.6 0.6 0
21.9 0.6 0
22.2 0.6 0
22.5 0.6 0
22.8 0.6 0
23.1 0.6 0
23.4 0.6 0
23.7 0.6 0
24 0.6 0
24.3 0.6 0
24.6 0.6 0
24.9 0.6 0
25.2 0.6 0
25.5 0.6 0
25.8 0.6 0
26.1 0.6 0
26.4 0.6 0
26.7 0.6 0
27 0.6 0
27.3 0.6 0
27.6 0.6 0
27.9 0.6 0
28.2 0.6 0
28.5 0.6 0
28.8 0.6 0
29.1 0.6 0
29.4 0.6 0
29.7 0.6 0
30 0.6 0
30.3 0.6 0
0 0.7 0
0.3 0.7 0
0.6 0.7 0
0.9 0.7 0
1.2 0.7 0
1.5 0.7 0
1.8 0.7 0
2.1 0.7 0
2.4 0.7 0
2.7 0.7 0
3 0.7 0
3.3 0.7 0
3.6 0.7 0
3.9 0.7 0
4.2 0.7 0
4.5 0.7 0
4.8 0.7 0
5.1 0.7 0
5.4 0.7 0
5.7 0.7 0
6 0.7 0
6.3 0.7 0
6.6 0.7 0
6.9 0.7 0
7.2 0.7 0
7.5 0.7 0
7.8 0.7 0
8.1 0.7 0
8.4 0.7 0
8.7 0.7 0
9 0.7 0
9.3 0.7 0
9.6 0.7 0
9.9 0.7 0
10.2 0.7 0
10.5 0.7 0
10.8 0.7 0
11.1 0.7 0
11.4 0.7 0
11.7 0.7 0
12 0.7 0
12.3 0.7 0
12.6 0.7 0
12.9 0.7 0
13.2 0.7 0
13.5 0.7 0
13.8 0.7 0
14.1 0.7 0
14.4 0.7 0
14.7 0.7 0
15 0.7 0
15.3 0.7 0
15.6 0.7 0
15.9 0.7 0
16.2 0.7 0
16.5 0.7 0
16.8 0.7 0
17.1 0.7 0
17.4 0.7 0
17.7 0.7 0
18 0.7 0
18.3 0.7 0
18.6 0.7 0
18.9 0.7 0
19.2 0.7 0
19.5 0.7 0
19.8 0.7 0
20.1 0.7 0
20.4 0.7 0
20.7 0.7 0
21 0.7 0
21.3 0.7 0
21.6 0.7 0
21.9 0.7 0
22.2 0.7 0
22.5 0.7 0
22.8 0.7 0
23.1 0.7 0
23.4 0.7 0
23.7 0.7 0
24 0.7 0
24.3 0.7 0
24.6 0.7 0
24.9 0.7 0
25.2 0.7 0
25.5 0.7 0
25.8 0.7 0
26.1 0.7 0
26.4 0.7 0
26.7 0.7 0
27 0.7 0
27.3 0.7 0
27.6 0.7 0
27.9 0.7 0
28.2 0.7 0
28.5 0.7 0
28.8 0.7 0
29.1 0.7 0
29.4 0.7 0
29.7 0.7 0
30 0.7 0
30.3 0.7 0
0 0.8 0
0.3 0.8 0
0.6 0.8 0
0.9 0.8 0
1.2 0.8 0
1.5 0.8 0
1.8 0.8 0
2.1 0.8 0
2.4 0.8 0
2.7 0.8 0
3 0.8 0
3.3 0.8 0
3.6 0.8 0
3.9 0.8 0
4.2 0.8 0
4.5 0.8 0
4.8 0.8 0
5.1 0.8 0
5.4 0.8 0
5.7 0.8 0
6 0.8 0
6.3 0.8 0
6.6 0.8 0
6.9 0.8 0
7.2 0.8 0
7.5 0.8 0
7.8 0.8 0
8.1 0.8 0
8.4 0.8 0
8.7 0.8 0
9 0.8 0
9.3 0.8 0
9.6 0.8 0
9.9 0.8 0
10.2 0.8 0
10.5 0.8 0
10.8 0.8 0
11.1 0.8 0
11.4 0.8 0
11.7 0.8 0
12 0.8 0
12.3 0.8 0
12.6 0.8 0
12.9 0.8 0
13.2 0.8 0
13.5 0.8 0
13.8 0.8 0
14.1 0.8 0
14.4 0.8 0
14.7 0.8 0
15 0.8 0
15.3 0.8 0
15.6 0.8 0
15.9 0.8 0
16.2 0.8 0
16.5 0.8 0
16.8 0.8 0
17.1 0.8 0
17.4 0.8 0
17.7 0.8 0
18 0.8 0
18.3 0.8 0
18.6 0.8 0
18.9 0.8 0
19.2 0.8 0
19.5 0.8 0
19.8 0.8 0
20.1 0.8 0
20.4 0.8 0
20.7 0.8 0
21 0.8 0
21.3 0.8 0
21.6 0.8 0
21.9 0.8 0
22.2 0.8 0
22.5 0.8 0
22.8 0.8 0
23.1 0.8 0
23.4 0.8 0
23.7 0.8 0
24 0.8 0
24.3 0.8 0
24.6 0.8 0
24.9 0.8 0
25.2 0.8 0
25.5 0.8 0
25.8 0.8 0
26.1 0.8 0
26.4 0.8 0
26.7 0.8 0
27 0.8 0
27.3 0.8 0
27.6 0.8 0
27.9 0.8 0
28.2 0.8 0
28.5 0.8 0
28.8 0.8 0
29.1 0.8 0
29.4 0.8 0
29.7 0.8 0
30 0.8 0
30.3 0.8 0
0 0.9 0
0.3 0.9 0
0.6 0.9 0
0.9 0.9 0
1.2 0.9 0
1.5 0.9 0
1.8 0.9 0
2.1 0.9 0
2.4 0.9 0
2.7 0.9 0
3 0.9 0
3.3 0.9 0
3.6 0.9 0
3.9 0.9 0
4.2 0.9 0
4.5 0.9 0
4.8 0.9 0
5.1 0.9 0
5.4 0.9 0
5.7 0.9 0
6 0.9 0
6.3 0.9 0
6.6 0.9 0
6.9 0.9 0
7.2 0.9 0
7.5 0.9 0
7.8 0.9 0
8.1 0.9 0
8.4 0.9 0
8.7 0.9 0
9 0.9 0
9.3 0.9 0
9.6 0.9 0
9.9 0.9 0
10.2 0.9 0
10.5 0.9 0
10.8 0.9 0
11.1 0.9 0
11.4 0.9 0
11.7 0.9 0
12 0.9 0
12.3 0.9 0
12.6 0.9 0
12.9 0.9 0
13.2 0.9 0
13.5 0.9 0
13.8 0.9 0
14.1 0.9 0
14.4 0.9 0
14.7 0.9 0
15 0.9 0
15.3 0.9 0
15.6 0.9 0
15.9 0.9 0
16.2 0.9 0
16.5 0.9 0
16.8 0.9 0
17.1 0.9 0
17.4 0.9 0
17.7 0.9 0
18 0.9 0
18.3 0.9 0
18.6 0.9 0
18.9 0.9 0
19.2 0.9 0
19.5 0.9 0
19.8 0.9 0
20.1 0.9 0
20.4 0.9 0
20.7 0.9 0
21 0.9 0
21.3 0.9 0
21.6 0.9 0
21.9 0.9 0
22.2 0.9 0
22.5 0.9 0
22.8 0.9 0
23.1 0.9 0
23.4 0.9 0
23.7 0.9 0
24 0.9 0
24.3 0.9 0
24.6 0.9 0
24.9 0.9 0
25.2 0.9 0
25.5 0.9 0
25.8 0.9 0
26.1 0.9 0
26.4 0.9 0
26.7 0.9 0
27 0.9 0
27.3 0.9 0
27.6 0.9 0
27.9 0.9 0
28.2 0.9 0
28.5 0.9 0
28.8 0.9 0
29.1 0.9 0
29.4 0.9 0
29.7 0.9 0
30 0.9 0
30.3 0.9 0
0 1 0
0.3 1 0
0.6 1 0
0.9 1 0
1.2 1 0
1.5 1 0
1.8 1 0
2.1 1 0
2.4 1 0
2.7 1 0
3 1 0
3.3 1 0
3.6 1 0
3.9 1 0
4.2 1 0
4.5 1 0
4.8 1 0
5.1 1 0
5.4 1 0
5.7 1 0
6 1 0
6.3 1 0
6.6 1 0
6.9 1 0
7.2 1 0
7.5 1 0
7.8 1 0
8.1 1 0
8.4 1 0
8.7 1 0
9 1 0
9.3 1 0
9.6 1 0
9.9 1 0
10.2 1 0
10.5 1 0
10.8 1 0
11.1 1 0
11.4 1 0
11.7 1 0
12 1 0
12.3 1 0
12.6 1 0
12.9 1 0
13.2 1 0
13.5 1 0
13.8 1 0
14.1 1 0
14.4 1 0
14.7 1 0
15 1 0
15.3 1 0
15.6 1 0
15.9 1 0
16.2 1 0
16.5 1 0
16.8 1 0
17.1 1 0
17.4 1 0
17.7 1 0
18 1 0
18.3 1 0
18.6 1 0
18.9 1 0
19.2 1 0
19.5 1 0
19.8 1 0
20.1 1 0
20.4 1 0
20.7 1 0
21 1 0
21.3 1 0
21.6 1 0
21.9 1 0
22.2 1 0
22.5 1 0
22.8 1 0
23.1 1 0
23.4 1 0
23.7 1 0
24 1 0
24.3 1 0
24.6 1 0
24.9 1 0
25.2 1 0
25.5 1 0
25.8 1 0
26.1 1 0
26.4 1 0
26.7 1 0
27 1 0
27.3 1 0
27.6 1 0
27.9 1 0
28.2 1 0
28.5 1 0
28.8 1 0
29.1 1 0
29.4 1 0
29.7 1 0
30 1 0
30.3 1 0
0 1.1 0
0.3 1.1 0
0.6 1.1 0
0.9 1.1 0
1.2 1.1 0
1.5 1.1 0
1.8 1.1 0
2.1 1.1 0
2.4 1.1 0
2.7 1.1 0
3 1.1 0
3.3 1.1 0
3.6 1.1 0
3.9 1.1 0
4.2 1.1 0
4.5 1.1 0
4.8 1.1 0
5.1 1.1 0
5.4 1.1 0
5.7 1.1 0
6 1.1 0
6.3 1.1 0
6.6 1.1 0
6.9 1.1 0
7.2 1.1 0
7.5 1.1 0
7.8 1.1 0
8.1 1.1 0
8.4 1.1 0
8.7 1.1 0
9 1.1 0
9.3 1.1 0
9.6 1.1 0
9.9 1.1 0
10.2 1.1 0
10.5 1.1 0
10.8 1.1 0
11.1 1.1 0
11.4 1.1 0
11.7 1.1 0
12 1.1 0
12.3 1.1 0
12.6 1.1 0
12.9 1.1 0
13.2 1.1 0
13.5 1.1 0
13.8 1.1 0
14.1 1.1 0
14.4 1.1 0
14.7 1.1 0
15 1.1 0
15.3 1.1 0
15.6 1.1 0
15.9 1.1 0
16.2 1.1 0
16.5 1.1 0
16.8 1.1 0
17.1 1.1 0
17.4 1.1 0
17.7 1.1 0
18 1.1 0
18.3 1.1 0
18.6 1.1 0
18.9 1.1 0
19.2 1.1 0
19.5 1.1 0
19.8 1.1 0
20.1 1.1 0
20.4 1.1 0
20.7 1.1 0
21 1.1 0
21.3 1.1 0
21.6 1.1 0
21.9 1.1 0
22.2 1.1 0
22.5 1.1 0
22.8 1.1 0
23.1 1.1 0
23.4 1.1 0
23.7 1.1 0
24 1.1 0
24.3 1.1 0
24.6 1.1 0
24.9 1.1 0
25.2 1.1 0
25.5 1.1 0
25.8 1.1 0
26.1 1.1 0
26.4 1.1 0
26.7 1.1 0
27 1.1 0
27.3 1.1 0
27.6 1.1 0
27.9 1.1 0
28.2 1.1 0
28.5 1.1 0
28.8 1.1 0
29.1 1.1 0
29.4 1.1 0
29.7 1.1 0
30 1.1 0
30.3 1.1 0

POINT_DATA 1224

VECTORS velocity double
LOOKUP_TABLE default
-1 0 0
-0.890976 0 0
-0.800416 0 0
-0.752906 0 0
-0.734489 0 0
-0.728909 0 0
-0.72755 0 0
-0.727285 0 0
-0.727246 0 0
-0.727243 0 0
-0.727244 0 0
-0.727244 0 0
-0.727245 0 0
-0.727245 0 0
-0.727245 0 0
-0.727245 0 0
-0.727245 0 0
-0.727245 0 0
-0.727245 0 0
-0.727246 0 0
-0.727246 0 0
-0.727246 0 0
-0.727246 0 0
-0.727246 0 0
-0.727246 0 0
-0.727246 0 0
-0.727246 0 0
-0.727246 0 0
-0.727246 0 0
-0.727246 0 0
-0.727246 0 0
-0.727246 0 0
-0.727246 0 0
-0.727246 0 0
-0.727246 0 0
-0.727246 0 0
-0.727246 0 0
-0.727246 0 0
-0.727246 0 0
-0.727246 0 0
-0.727246 0 0
-0.727246 0 0
-0.727246 0 0
-0.727246 0 0
-0.727246 0 0
-0.727246 0 0
-0.727246 0 0
-0.727246 0 0
-0.727245 0 0
-0.727245 0 0
-0.727245 0 0
-0.727245 0 0
-0.727245 0 0
-0.727245 0 0
-0.727244 0 0
-0.727244 0 0
-0.727244 0 0
-0.727244 0 0
-0.727244 0 0
-0.727243 0 0
-0.727243 0 0
-0.727243 0 0
-0.727243 0 0
-0.727242 0 0
-0.727242 0 0
-0.727242 0 0
-0.727241 0 0
-0.727241 0 0
-0.727241 0 0
-0.727241 0 0
-0.72724 0 0
-0.72724 0 0
-0.72724 0 0
-0.727239 0 0
-0.727239 0 0
-0.727239 0 0
-0.727238 0 0
-0.727238 0 0
-0.727238 0 0
-0.727237 0 0
-0.727237 0 0
-0.727236 0 0
-0.727236 0 0
-0.727236 0 0
-0.727235 0 0
-0.727235 0 0
-0.727234 0 0
-0.727234 0 0
-0.727234 0 0
-0.727233 0 0
-0.727233 0 0
-0.727232 0 0
-0.727232 0 0
-0.727232 0 0
-0.727232 0 0
-0.727233 0 0
-0.727238 0 0
-0.72729 0 0
-0.727332 0 0
-0.729009 0 0
-0.729009 0 0
-1 0 0
1 -0.0363414 0
0.890976 0.0363414 0
0.800416 0.0301865 0
0.752906 0.0158368 0
0.734489 0.00613896 0
0.728909 0.00186001 0
0.72755 0.000452875 0
0.727285 8.84119e-05 0
0.727246 1.30091e-05 0
0.727243 9.91021e-07 0
0.727244 -2.19734e-07 0
0.727244 -1.54746e-07 0
0.727245 -8.55829e-08 0
0.727245 -6.46047e-08 0
0.727245 -6.0393e-08 0
0.727245 -6.03368e-08 0
0.727245 -6.12116e-08 0
0.727245 -6.23368e-08 0
0.727245 -6.35846e-08 0
0.727246 -6.49325e-08 0
0.727246 -6.63759e-08 0
0.727246 -6.79127e-08 0
0.727246 -6.9541e-08 0
0.727246 -7.12599e-08 0
0.727246 -7.3068e-08 0
0.727246 -7.49641e-08 0
0.727246 -7.69453e-08 0
0.727246 -7.90087e-08 0
0.727246 -8.11518e-08 0
0.727246 -8.33722e-08 0
0.727246 -8.5667e-08 0
0.727246 -8.80336e-08 0
0.727246 -9.04702e-08 0
0.727246 -9.29744e-08 0
0.727246 -9.55441e-08 0
0.727246 -9.81763e-08 0
0.727246 -1.0087e-07 0
0.727246 -1.03624e-07 0
0.727246 -1.06436e-07 0
0.727246 -1.09301e-07 0
0.727246 -1.12213e-07 0
0.727246 -1.15169e-07 0
0.727246 -1.18168e-07 0
0.727246 -1.21208e-07 0
0.727246 -1.24285e-07 0
0.727246 -1.274e-07 0
0.727246 -1.3055e-07 0
0.727246 -1.33733e-07 0
0.727245 -1.36929e-07 0
0.727245 -1.40177e-07 0
0.727245 -1.4347e-07 0
0.727245 -1.46804e-07 0
0.727245 -1.50169e-07 0
0.727245 -1.5353e-07 0
0.727244 -1.56865e-07 0
0.727244 -1.60189e-07 0
0.727244 -1.63509e-07 0
0.727244 -1.66831e-07 0
0.727244 -1.70151e-07 0
0.727243 -1.73461e-07 0
0.727243 -1.76754e-07 0
0.727243 -1.8003e-07 0
0.727243 -1.83287e-07 0
0.727242 -1.86524e-07 0
0.727242 -1.89738e-07 0
0.727242 -1.92928e-07 0
0.727241 -1.96089e-07 0
0.727241 -1.99218e-07 0
0.727241 -2.02313e-07 0
0.727241 -2.05371e-07 0
0.72724 -2.08387e-07 0
0.72724 -2.11361e-07 0
0.72724 -2.14287e-07 0
0.727239 -2.17164e-07 0
0.727239 -2.19989e-07 0
0.727239 -2.22758e-07 0
0.727238 -2.25469e-07 0
0.727238 -2.28118e-07 0
0.727238 -2.30703e-07 0
0.727237 -2.33222e-07 0
0.727237 -2.35672e-07 0
0.727236 -2.3805e-07 0
0.727236 -2.40351e-07 0
0.727236 -2.42575e-07 0
0.727235 -2.44719e-07 0
0.727235 -2.46781e-07 0
0.727234 -2.48759e-07 0
0.727234 -2.50652e-07 0
0.727234 -2.52463e-07 0
0.727233 -2.54214e-07 0
0.727233 -2.56011e-07 0
0.727232 -2.58351e-07 0
0.727232 -2.63586e-07 0
0.727232 -2.83156e-07 0
0.727232 -3.6639e-07 0
0.727233 -8.24592e-07 0
0.727238 -2.13263e-06 0
0.72729 -1.75584e-05 0
0.727332 -1.44465e-05 0
0.729009 -0.000559617 0
0.729009 -0.000954753 0
1 -0.000954753 0
1 -0.0270445 0
1.02789 0.0270445 0
1.03712 0.0271089 0
1.03975 0.0149629 0
1.04042 0.00591305 0
1.0406 0.00180094 0
1.04066 0.000433622 0
1.04068 8.09374e-05 0
1.04069 1.01811e-05 0
1.04069 3.96111e-08 0
1.04069 -4.89385e-07 0
1.04069 -2.24753e-07 0
1.04069 -1.00889e-07 0
1.04069 -6.56187e-08 0
1.04069 -5.78984e-08 0
1.04069 -5.6986e-08 0
1.04069 -5.76064e-08 0
1.04069 -5.86076e-08 0
1.04069 -5.97617e-08 0
1.04069 -6.10268e-08 0
1.04069 -6.23947e-08 0
1.04069 -6.38628e-08 0
1.04069 -6.54293e-08 0
1.04069 -6.70928e-08 0
1.04069 -6.88514e-08 0
1.04069 -7.07038e-08 0
1.04069 -7.26485e-08 0
1.04069 -7.46844e-08 0
1.04069 -7.68091e-08 0
1.04069 -7.90187e-08 0
1.04069 -8.1309e-08 0
1.04069 -8.3677e-08 0
1.04069 -8.6121e-08 0
1.04069 -8.86391e-08 0
1.04069 -9.12291e-08 0
1.04069 -9.38886e-08 0
1.04069 -9.66157e-08 0
1.04069 -9.94077e-08 0
1.04069 -1.02261e-07 0
1.04069 -1.05171e-07 0
1.04069 -1.08135e-07 0
1.04069 -1.11152e-07 0
1.04069 -1.14221e-07 0
1.04069 -1.17337e-07 0
1.04069 -1.20498e-07 0
1.04069 -1.23701e-07 0
1.04069 -1.26941e-07 0
1.04069 -1.30214e-07 0
1.04069 -1.33523e-07 0
1.04069 -1.36869e-07 0
1.04069 -1.40242e-07 0
1.04069 -1.43636e-07 0
1.04069 -1.4704e-07 0
1.04069 -1.5045e-07 0
1.04069 -1.53871e-07 0
1.04069 -1.57307e-07 0
1.04069 -1.60757e-07 0
1.04069 -1.64213e-07 0
1.04069 -1.6767e-07 0
1.04069 -1.71122e-07 0
1.04069 -1.74569e-07 0
1.04069 -1.78009e-07 0
1.04069 -1.81438e-07 0
1.04069 -1.84853e-07 0
1.04069 -1.8825e-07 0
1.04069 -1.91626e-07 0
1.04069 -1.94977e-07 0
1.04068 -1.98301e-07 0
1.04068 -2.01593e-07 0
1.04068 -2.04851e-07 0
1.04068 -2.08072e-07 0
1.04068 -2.11253e-07 0
1.04068 -2.14389e-07 0
1.04068 -2.17479e-07 0
1.04068 -2.20519e-07 0
1.04068 -2.23505e-07 0
1.04068 -2.26435e-07 0
1.04068 -2.29306e-07 0
1.04068 -2.32115e-07 0
1.04068 -2.34858e-07 0
1.04068 -2.37533e-07 0
1.04068 -2.40136e-07 0
1.04068 -2.42666e-07 0
1.04068 -2.45118e-07 0
1.04068 -2.47492e-07 0
1.04068 -2.49783e-07 0
1.04068 -2.51991e-07 0
1.04068 -2.54115e-07 0
1.04068 -2.56161e-07 0
1.04068 -2.58164e-07 0
1.04068 -2.60283e-07 0
1.04068 -2.63267e-07 0
1.04068 -2.70641e-07 0
1.04068 -2.99178e-07 0
1.04068 -4.26791e-07 0
1.04068 -1.04915e-06 0
1.04068 -3.62674e-06 0
1.04069 -2.00991e-05 0
1.04081 -5.5487e-05 0
1.04079 -0.000554671 0
1.04079 -0.000935594 0
1 -0.000935594 0
1 -0.0162882 0
1.03227 0.0162882 0
1.05815 0.0184809 0
1.07043 0.0108719 0
1.0745 0.0045563 0
1.07545 0.00148141 0
1.0756 0.000386185 0
1.0756 8.0634e-05 0
1.07559 1.26887e-05 0
1.07559 1.04815e-06 0
1.07559 -2.07379e-07 0
1.07559 -1.50604e-07 0
1.07559 -7.26222e-08 0
1.07559 -4.58154e-08 0
1.07559 -3.95251e-08 0
1.07559 -3.89565e-08 0
1.07559 -3.97993e-08 0
1.07559 -4.10282e-08 0
1.07559 -4.24269e-08 0
1.07559 -4.3953e-08 0
1.07559 -4.55978e-08 0
1.07559 -4.73583e-08 0
1.07559 -4.92321e-08 0
1.07559 -5.12175e-08 0
1.07559 -5.33123e-08 0
1.07559 -5.55151e-08 0
1.07559 -5.78251e-08 0
1.07559 -6.02412e-08 0
1.07559 -6.27603e-08 0
1.07558 -6.53773e-08 0
1.07558 -6.8086e-08 0
1.07558 -7.08829e-08 0
1.07558 -7.37665e-08 0
1.07558 -7.67347e-08 0
1.07558 -7.97849e-08 0
1.07558 -8.29145e-08 0
1.07558 -8.61211e-08 0
1.07558 -8.94011e-08 0
1.07558 -9.27501e-08 0
1.07558 -9.6164e-08 0
1.07558 -9.964e-08 0
1.07558 -1.03176e-07 0
1.07558 -1.06771e-07 0
1.07558 -1.1042e-07 0
1.07558 -1.14119e-07 0
1.07558 -1.17865e-07 0
1.07558 -1.21651e-07 0
1.07558 -1.25475e-07 0
1.07558 -1.29339e-07 0
1.07558 -1.33237e-07 0
1.07558 -1.37161e-07 0
1.07558 -1.41105e-07 0
1.07558 -1.45061e-07 0
1.07558 -1.49028e-07 0
1.07558 -1.53013e-07 0
1.07558 -1.57014e-07 0
1.07558 -1.61028e-07 0
1.07558 -1.65046e-07 0
1.07558 -1.69062e-07 0
1.07558 -1.73073e-07 0
1.07558 -1.77077e-07 0
1.07558 -1.81072e-07 0
1.07558 -1.85052e-07 0
1.07558 -1.89014e-07 0
1.07558 -1.92954e-07 0
1.07558 -1.96867e-07 0
1.07558 -2.00749e-07 0
1.07558 -2.04598e-07 0
1.07558 -2.08408e-07 0
1.07558 -2.12178e-07 0
1.07558 -2.15902e-07 0
1.07558 -2.19577e-07 0
1.07558 -2.232e-07 0
1.07558 -2.26767e-07 0
1.07558 -2.30273e-07 0
1.07558 -2.33717e-07 0
1.07558 -2.37093e-07 0
1.07557 -2.40399e-07 0
1.07557 -2.43631e-07 0
1.07557 -2.46785e-07 0
1.07557 -2.49858e-07 0
1.07557 -2.52847e-07 0
1.07557 -2.55748e-07 0
1.07557 -2.58559e-07 0
1.07557 -2.61277e-07 0
1.07557 -2.63898e-07 0
1.07557 -2.66421e-07 0
1.07557 -2.68845e-07 0
1.07557 -2.71176e-07 0
1.07557 -2.73448e-07 0
1.07557 -2.75815e-07 0
1.07557 -2.78986e-07 0
1.07557 -2.86272e-07 0
1.07557 -3.13289e-07 0
1.07557 -4.3381e-07 0
1.07557 -9.99061e-07 0
1.07557 -3.57301e-06 0
1.07556 -1.66373e-05 0
1.07558 -6.20004e-05 0
1.07503 -0.000373878 0
1.07503 -0.000646113 0
1 -0.000646113 0
1 -0.00758932 0
1.0261 0.00758932 0
1.05378 0.00925154 0
1.06939 0.00567035 0
1.07565 0.00246775 0
1.07759 0.000835213 0
1.07807 0.000228023 0
1.07816 5.05461e-05 0
1.07817 8.78226e-06 0
1.07817 9.96205e-07 0
1.07817 -3.22405e-08 0
1.07817 -6.73204e-08 0
1.07817 -3.49026e-08 0
1.07817 -2.16558e-08 0
1.07817 -1.87729e-08 0
1.07817 -1.91103e-08 0
1.07817 -2.0334e-08 0
1.07817 -2.18551e-08 0
1.07817 -2.35441e-08 0
1.07817 -2.53744e-08 0
1.07817 -2.73398e-08 0
1.07817 -2.94373e-08 0
1.07817 -3.16642e-08 0
1.07817 -3.40183e-08 0
1.07817 -3.6497e-08 0
1.07817 -3.90991e-08 0
1.07817 -4.18243e-08 0
1.07817 -4.46716e-08 0
1.07817 -4.76369e-08 0
1.07817 -5.07137e-08 0
1.07817 -5.38937e-08 0
1.07817 -5.71727e-08 0
1.07817 -6.05495e-08 0
1.07817 -6.40221e-08 0
1.07817 -6.75874e-08 0
1.07817 -7.12423e-08 0
1.07817 -7.49839e-08 0
1.07817 -7.88085e-08 0
1.07817 -8.27112e-08 0
1.07817 -8.66872e-08 0
1.07817 -9.07329e-08 0
1.07817 -9.48461e-08 0
1.07817 -9.90242e-08 0
1.07817 -1.03263e-07 0
1.07817 -1.07558e-07 0
1.07817 -1.11903e-07 0
1.07817 -1.16293e-07 0
1.07817 -1.20726e-07 0
1.07816 -1.252e-07 0
1.07816 -1.2971e-07 0
1.07816 -1.34248e-07 0
1.07816 -1.38812e-07 0
1.07816 -1.43395e-07 0
1.07816 -1.47995e-07 0
1.07816 -1.5261e-07 0
1.07816 -1.57238e-07 0
1.07816 -1.61872e-07 0
1.07816 -1.66507e-07 0
1.07816 -1.71139e-07 0
1.07816 -1.75762e-07 0
1.07816 -1.80375e-07 0
1.07816 -1.84974e-07 0
1.07816 -1.89553e-07 0
1.07816 -1.94109e-07 0
1.07816 -1.98635e-07 0
1.07816 -2.03129e-07 0
1.07816 -2.07585e-07 0
1.07816 -2.12e-07 0
1.07816 -2.16368e-07 0
1.07816 -2.20687e-07 0
1.07816 -2.24951e-07 0
1.07816 -2.29157e-07 0
1.07816 -2.333e-07 0
1.07816 -2.37376e-07 0
1.07816 -2.41381e-07 0
1.07816 -2.4531e-07 0
1.07816 -2.4916e-07 0
1.07816 -2.52927e-07 0
1.07816 -2.56606e-07 0
1.07816 -2.60194e-07 0
1.07816 -2.63687e-07 0
1.07816 -2.6708e-07 0
1.07816 -2.7037e-07 0
1.07816 -2.73555e-07 0
1.07816 -2.7663e-07 0
1.07816 -2.79592e-07 0
1.07815 -2.82439e-07 0
1.07815 -2.85169e-07 0
1.07815 -2.87787e-07 0
1.07815 -2.90314e-07 0
1.07815 -2.9285e-07 0
1.07815 -2.95829e-07 0
1.07815 -3.01236e-07 0
1.07815 -3.18329e-07 0
1.07815 -3.90943e-07 0
1.07815 -7.25098e-07 0
1.07815 -2.28368e-06 0
1.07812 -9.55133e-06 0
1.07805 -3.83774e-05 0
1.07749 -0.000184635 0
1.07749 -0.000324478 0
1 -0.000324478 0
1 -9.68721e-08 0
1.02277 9.68721e-08 0
1.05052 4.49735e-08 0
1.06753 -2.60863e-07 0
1.07494 -4.26053e-07 0
1.07745 -3.65722e-07 0
1.07813 -2.2141e-07 0
1.07828 -1.04331e-07 0
1.07831 -3.89214e-08 0
1.07831 -9.7671e-09 0
1.07831 1.15239e-09 0
1.07831 4.34198e-09 0
1.07831 4.56748e-09 0
1.07831 3.71439e-09 0
1.07831 2.43698e-09 0
1.07831 9.35e-10 0
1.07831 -7.37709e-10 0
1.07831 -2.5682e-09 0
1.07831 -4.55331e-09 0
1.07831 -6.69151e-09 0
1.07831 -8.98089e-09 0
1.07831 -1.14189e-08 0
1.07831 -1.40022e-08 0
1.07831 -1.67285e-08 0
1.07831 -1.95945e-08 0
1.07831 -2.25991e-08 0
1.07831 -2.57432e-08 0
1.07831 -2.90255e-08 0
1.07831 -3.24413e-08 0
1.07831 -3.59824e-08 0
1.07831 -3.96377e-08 0
1.07831 -4.34024e-08 0
1.07831 -4.72763e-08 0
1.07831 -5.12572e-08 0
1.07831 -5.53417e-08 0
1.07831 -5.95259e-08 0
1.07831 -6.38066e-08 0
1.07831 -6.81801e-08 0
1.07831 -7.26409e-08 0
1.07831 -7.71833e-08 0
1.07831 -8.18029e-08 0
1.07831 -8.6497e-08 0
1.07831 -9.12629e-08 0
1.07831 -9.60958e-08 0
1.07831 -1.0099e-07 0
1.07831 -1.05939e-07 0
1.07831 -1.10938e-07 0
1.07831 -1.15984e-07 0
1.07831 -1.21072e-07 0
1.07831 -1.26198e-07 0
1.07831 -1.31357e-07 0
1.07831 -1.36546e-07 0
1.07831 -1.41763e-07 0
1.07831 -1.47e-07 0
1.07831 -1.52252e-07 0
1.07831 -1.5751e-07 0
1.0783 -1.6277e-07 0
1.0783 -1.68027e-07 0
1.0783 -1.73277e-07 0
1.0783 -1.78518e-07 0
1.0783 -1.83743e-07 0
1.0783 -1.8895e-07 0
1.0783 -1.94132e-07 0
1.0783 -1.99284e-07 0
1.0783 -2.04401e-07 0
1.0783 -2.09478e-07 0
1.0783 -2.14511e-07 0
1.0783 -2.19495e-07 0
1.0783 -2.24424e-07 0
1.0783 -2.29295e-07 0
1.0783 -2.34102e-07 0
1.0783 -2.38841e-07 0
1.0783 -2.43506e-07 0
1.0783 -2.48094e-07 0
1.0783 -2.52599e-07 0
1.0783 -2.57016e-07 0
1.0783 -2.61342e-07 0
1.0783 -2.65571e-07 0
1.0783 -2.69699e-07 0
1.0783 -2.73722e-07 0
1.0783 -2.77635e-07 0
1.0783 -2.81434e-07 0
1.0783 -2.85115e-07 0
1.0783 -2.88674e-07 0
1.0783 -2.92107e-07 0
1.0783 -2.95411e-07 0
1.0783 -2.98582e-07 0
1.0783 -3.01618e-07 0
1.0783 -3.0452e-07 0
1.0783 -3.07292e-07 0
1.0783 -3.09947e-07 0
1.07829 -3.12511e-07 0
1.07829 -3.15005e-07 0
1.07829 -3.17316e-07 0
1.07829 -3.18616e-07 0
1.07829 -3.18988e-07 0
1.07829 -3.19407e-07 0
1.07826 -3.20147e-07 0
1.07814 -3.20418e-07 0
1.07759 -3.19069e-07 0
1.07759 -3.15428e-07 0
1 -3.15428e-07 0
1 0.00758914 0
1.02277 -0.00758914 0
1.05052 -0.0092515 0
1.06753 -0.00567089 0
1.07494 -0.00246859 0
1.07745 -0.000835918 0
1.07813 -0.000228443 0
1.07828 -5.07412e-05 0
1.07831 -8.85373e-06 0
1.07831 -1.01315e-06 0
1.07831 3.5501e-08 0
1.07831 7.63289e-08 0
1.07831 4.41339e-08 0
1.07831 2.91054e-08 0
1.07831 2.36451e-08 0
1.07831 2.09725e-08 0
1.07831 1.88494e-08 0
1.07831 1.67092e-08 0
1.07831 1.44279e-08 0
1.07831 1.19818e-08 0
1.07831 9.36829e-09 0
1.07831 6.58971e-09 0
1.07831 3.64995e-09 0
1.07831 5.51419e-10 0
1.07831 -2.70175e-09 0
1.07831 -6.10862e-09 0
1.07831 -9.67121e-09 0
1.07831 -1.33886e-08 0
1.07831 -1.72554e-08 0
1.07831 -2.12616e-08 0
1.07831 -2.53923e-08 0
1.07831 -2.96424e-08 0
1.07831 -3.40132e-08 0
1.07831 -3.85024e-08 0
1.07831 -4.3106e-08 0
1.07831 -4.78192e-08 0
1.07831 -5.2639e-08 0
1.07831 -5.75616e-08 0
1.07831 -6.25805e-08 0
1.07831 -6.76893e-08 0
1.07831 -7.28825e-08 0
1.07831 -7.81571e-08 0
1.07831 -8.35108e-08 0
1.07831 -8.8938e-08 0
1.07831 -9.44319e-08 0
1.07831 -9.99848e-08 0
1.07831 -1.05592e-07 0
1.07831 -1.11251e-07 0
1.07831 -1.16953e-07 0
1.07831 -1.22694e-07 0
1.07831 -1.28473e-07 0
1.07831 -1.34288e-07 0
1.07831 -1.40138e-07 0
1.07831 -1.46014e-07 0
1.07831 -1.51901e-07 0
1.07831 -1.5779e-07 0
1.0783 -1.63675e-07 0
1.0783 -1.69554e-07 0
1.0783 -1.75423e-07 0
1.0783 -1.81279e-07 0
1.0783 -1.87118e-07 0
1.0783 -1.92932e-07 0
1.0783 -1.98717e-07 0
1.0783 -2.04465e-07 0
1.0783 -2.10172e-07 0
1.0783 -2.15833e-07 0
1.0783 -2.21442e-07 0
1.0783 -2.26995e-07 0
1.0783 -2.32485e-07 0
1.0783 -2.37908e-07 0
1.0783 -2.43257e-07 0
1.0783 -2.48529e-07 0
1.0783 -2.53716e-07 0
1.0783 -2.58815e-07 0
1.0783 -2.6382e-07 0
1.0783 -2.68725e-07 0
1.0783 -2.73526e-07 0
1.0783 -2.78218e-07 0
1.0783 -2.82795e-07 0
1.0783 -2.87252e-07 0
1.0783 -2.91586e-07 0
1.0783 -2.9579e-07 0
1.0783 -2.99861e-07 0
1.0783 -3.03794e-07 0
1.0783 -3.07585e-07 0
1.0783 -3.1123e-07 0
1.0783 -3.14724e-07 0
1.0783 -3.18066e-07 0
1.0783 -3.2125e-07 0
1.0783 -3.24264e-07 0
1.0783 -3.27035e-07 0
1.07829 -3.29182e-07 0
1.07829 -3.28775e-07 0
1.07829 -3.16397e-07 0
1.07829 -2.46384e-07 0
1.07829 8.71296e-08 0
1.07829 1.64492e-06 0
1.07826 8.91098e-06 0
1.07814 3.77364e-05 0
1.07759 0.000183996 0
1.07759 0.000323847 0
1 0.000323847 0
1 0.0162881 0
1.0261 -0.0162881 0
1.05379 -0.018481 0
1.06939 -0.0108725 0
1.07566 -0.0045571 0
1.07759 -0.00148203 0
1.07807 -0.000386536 0
1.07816 -8.07893e-05 0
1.07817 -1.27416e-05 0
1.07817 -1.05766e-06 0
1.07817 2.1333e-07 0
1.07817 1.60494e-07 0
1.07817 8.2088e-08 0
1.07817 5.32857e-08 0
1.07817 4.4353e-08 0
1.07817 4.07554e-08 0
1.07817 3.82449e-08 0
1.07817 3.5809e-08 0
1.07817 3.32346e-08 0
1.07817 3.04814e-08 0
1.07817 2.75444e-08 0
1.07817 2.44257e-08 0
1.07817 2.11305e-08 0
1.07817 1.76608e-08 0
1.07817 1.40224e-08 0
1.07817 1.02164e-08 0
1.07817 6.23891e-09 0
1.07817 2.09008e-09 0
1.07817 -2.22469e-09 0
1.07817 -6.69433e-09 0
1.07817 -1.12978e-08 0
1.07817 -1.60301e-08 0
1.07817 -2.0895e-08 0
1.07817 -2.58898e-08 0
1.07817 -3.10097e-08 0
1.07817 -3.6249e-08 0
1.07817 -4.16046e-08 0
1.07817 -4.70728e-08 0
1.07817 -5.26466e-08 0
1.07817 -5.83185e-08 0
1.07817 -6.40817e-08 0
1.07817 -6.99329e-08 0
1.07817 -7.58703e-08 0
1.07817 -8.1888e-08 0
1.07817 -8.79777e-08 0
1.07817 -9.41306e-08 0
1.07817 -1.00342e-07 0
1.07817 -1.06609e-07 0
1.07816 -1.12922e-07 0
1.07816 -1.19273e-07 0
1.07816 -1.25666e-07 0
1.07816 -1.321e-07 0
1.07816 -1.38576e-07 0
1.07816 -1.45083e-07 0
1.07816 -1.51601e-07 0
1.07816 -1.58114e-07 0
1.07816 -1.6462e-07 0
1.07816 -1.71115e-07 0
1.07816 -1.77597e-07 0
1.07816 -1.84065e-07 0
1.07816 -1.90511e-07 0
1.07816 -1.96928e-07 0
1.07816 -2.0331e-07 0
1.07816 -2.09651e-07 0
1.07816 -2.15943e-07 0
1.07816 -2.22183e-07 0
1.07816 -2.28364e-07 0
1.07816 -2.34481e-07 0
1.07816 -2.40527e-07 0
1.07816 -2.46497e-07 0
1.07816 -2.52385e-07 0
1.07816 -2.58185e-07 0
1.07816 -2.6389e-07 0
1.07816 -2.69496e-07 0
1.07816 -2.74997e-07 0
1.07816 -2.80386e-07 0
1.07816 -2.85658e-07 0
1.07816 -2.90808e-07 0
1.07816 -2.95829e-07 0
1.07816 -3.00718e-07 0
1.07816 -3.05468e-07 0
1.07816 -3.10074e-07 0
1.07816 -3.14531e-07 0
1.07816 -3.18834e-07 0
1.07816 -3.22979e-07 0
1.07816 -3.26962e-07 0
1.07815 -3.30777e-07 0
1.07815 -3.34421e-07 0
1.07815 -3.37886e-07 0
1.07815 -3.41146e-07 0
1.07815 -3.44072e-07 0
1.07815 -3.46016e-07 0
1.07815 -3.43763e-07 0
1.07815 -3.21772e-07 0
1.07815 -2.04076e-07 0
1.07815 3.60875e-07 0
1.07815 2.93421e-06 0