# vtk DataFile Version 2.0
FlowField
ASCII
DATASET STRUCTURED_GRID
DIMENSIONS 102 1 12 
POINTS 1224 double
0 0 0
0.3 0 0
0.6 0 0
0.9 0 0
1.2 0 0
1.5 0 0
1.8 0 0
2.1 0 0
2.4 0 0
2.7 0 0
3 0 0
3.3 0 0
3.6 0 0
3.9 0 0
4.2 0 0
4.5 0 0
4.8 0 0
5.1 0 0
5.4 0 0
5.7 0 0
6 0 0
6.3 0 0
6.6 0 0
6.9 0 0
7.2 0 0
7.5 0 0
7.8 0 0
8.1 0 0
8.4 0 0
8.7 0 0
9 0 0
9.3 0 0
9.6 0 0
9.9 0 0
10.2 0 0
10.5 0 0
10.8 0 0
11.1 0 0
11.4 0 0
11.7 0 0
12 0 0
12.3 0 0
12.6 0 0
12.9 0 0
13.2 0 0
13.5 0 0
13.8 0 0
14.1 0 0
14.4 0 0
14.7 0 0
15 0 0
15.3 0 0
15.6 0 0
15.9 0 0
16.2 0 0
16.5 0 0
16.8 0 0
17.1 0 0
17.4 0 0
17.7 0 0
18 0 0
18.3 0 0
18.6 0 0
18.9 0 0
19.2 0 0
19.5 0 0
19.8 0 0
20.1 0 0
20.4 0 0
20.7 0 0
21 0 0
21.3 0 0
21.6 0 0
21.9 0 0
22.2 0 0
22.5 0 0
22.8 0 0
23.1 0 0
23.4 0 0
23.7 0 0
24 0 0
24.3 0 0
24.6 0 0
24.9 0 0
25.2 0 0
25.5 0 0
25.8 0 0
26.1 0 0
26.4 0 0
26.7 0 0
27 0 0
27.3 0 0
27.6 0 0
27.9 0 0
28.2 0 0
28.5 0 0
28.8 0 0
29.1 0 0
29.4 0 0
29.7 0 0
30 0 0
30.3 0 0
0 0.1 0
0.3 0.1 0
0.6 0.1 0
0.9 0.1 0
1.2 0.1 0
1.5 0.1 0
1.8 0.1 0
2.1 0.1 0
2.4 0.1 0
2.7 0.1 0
3 0.1 0
3.3 0.1 0
3.6 0.1 0
3.9 0.1 0
4.2 0.1 0
4.5 0.1 0
4.8 0.1 0
5.1 0.1 0
5.4 0.1 0
5.7 0.1 0
6 0.1 0
6.3 0.1 0
6.6 0.1 0
6.9 0.1 0
7.2 0.1 0
7.5 0.1 0
7.8 0.1 0
8.1 0.1 0
8.4 0.1 0
8.7 0.1 0
9 0.1 0
9.3 0.1 0
9.6 0.1 0
9.9 0.1 0
10.2 0.1 0
10.5 0.1 0
10.8 0.1 0
11.1 0.1 0
11.4 0.1 0
11.7 0.1 0
12 0.1 0
12.3 0.1 0
12.6 0.1 0
12.9 0.1 0
13.2 0.1 0
13.5 0.1 0
13.8 0.1 0
14.1 0.1 0
14.4 0.1 0
14.7 0.1 0
15 0.1 0
15.3 0.1 0
15.6 0.1 0
15.9 0.1 0
16.2 0.1 0
16.5 0.1 0
16.8 0.1 0
17.1 0.1 0
17.4 0.1 0
17.7 0.1 0
18 0.1 0
18.3 0.1 0
18.6 0.1 0
18.9 0.1 0
19.2 0.1 0
19.5 0.1 0
19.8 0.1 0
20.1 0.1 0
20.4 0.1 0
20.7 0.1 0
21 0.1 0
21.3 0.1 0
21.6 0.1 0
21.9 0.1 0
22.2 0.1 0
22.5 0.1 0
22.8 0.1 0
23.1 0.1 0
23.4 0.1 0
23.7 0.1 0
24 0.1 0
24.3 0.1 0
24.6 0.1 0
24.9 0.1 0
25.2 0.1 0
25.5 0.1 0
25.8 0.1 0
26.1 0.1 0
26.4 0.1 0
26.7 0.1 0
27 0.1 0
27.3 0.1 0
27.6 0.1 0
27.9 0.1 0
28.2 0.1 0
28.5 0.1 0
28.8 0.1 0
29.1 0.1 0
29.4 0.1 0
29.7 0.1 0
30 0.1 0
30.3 0.1 0
0 0.2 0
0.3 0.2 0
0.6 0.2 0
0.9 0.2 0
1.2 0.2 0
1.5 0.2 0
1.8 0.2 0
2.1 0.2 0
2.4 0.2 0
2.7 0.2 0
3 0.2 0
3.3 0.2 0
3.6 0.2 0
3.9 0.2 0
4.2 0.2 0
4.5 0.2 0
4.8 0.2 0
5.1 0.2 0
5.4 0.2 0
5.7 0.2 0
6 0.2 0
6.3 0.2 0
6.6 0.2 0
6.9 0.2 0
7.2 0.2 0
7.5 0.2 0
7.8 0.2 0
8.1 0.2 0
8.4 0.2 0
8.7 0.2 0
9 0.2 0
9.3 0.2 0
9.6 0.2 0
9.9 0.2 0
10.2 0.2 0
10.5 0.2 0
10.8 0.2 0
11.1 0.2 0
11.4 0.2 0
11.7 0.2 0
12 0.2 0
12.3 0.2 0
12.6 0.2 0
12.9 0.2 0
13.2 0.2 0
13.5 0.2 0
13.8 0.2 0
14.1 0.2 0
14.4 0.2 0
14.7 0.2 0
15 0.2 0
15.3 0.2 0
15.6 0.2 0
15.9 0.2 0
16.2 0.2 0
16.5 0.2 0
16.8 0.2 0
17.1 0.2 0
17.4 0.2 0
17.7 0.2 0
18 0.2 0
18.3 0.2 0
18.6 0.2 0
18.9 0.2 0
19.2 0.2 0
19.5 0.2 0
19.8 0.2 0
20.1 0.2 0
20.4 0.2 0
20.7 0.2 0
21 0.2 0
21.3 0.2 0
21.6 0.2 0
21.9 0.2 0
22.2 0.2 0
22.5 0.2 0
22.8 0.2 0
23.1 0.2 0
23.4 0.2 0
23.7 0.2 0
24 0.2 0
24.3 0.2 0
24.6 0.2 0
24.9 0.2 0
25.2 0.2 0
25.5 0.2 0
25.8 0.2 0
26.1 0.2 0
26.4 0.2 0
26.7 0.2 0
27 0.2 0
27.3 0.2 0
27.6 0.2 0
27.9 0.2 0
28.2 0.2 0
28.5 0.2 0
28.8 0.2 0
29.1 0.2 0
29.4 0.2 0
29.7 0.2 0
30 0.2 0
30.3 0.2 0
0 0.3 0
0.3 0.3 0
0.6 0.3 0
0.9 0.3 0
1.2 0.3 0
1.5 0.3 0
1.8 0.3 0
2.1 0.3 0
2.4 0.3 0
2.7 0.3 0
3 0.3 0
3.3 0.3 0
3.6 0.3 0
3.9 0.3 0
4.2 0.3 0
4.5 0.3 0
4.8 0.3 0
5.1 0.3 0
5.4 0.3 0
5.7 0.3 0
6 0.3 0
6.3 0.3 0
6.6 0.3 0
6.9 0.3 0
7.2 0.3 0
7.5 0.3 0
7.8 0.3 0
8.1 0.3 0
8.4 0.3 0
8.7 0.3 0
9 0.3 0
9.3 0.3 0
9.6 0.3 0
9.9 0.3 0
10.2 0.3 0
10.5 0.3 0
10.8 0.3 0
11.1 0.3 0
11.4 0.3 0
11.7 0.3 0
12 0.3 0
12.3 0.3 0
12.6 0.3 0
12.9 0.3 0
13.2 0.3 0
13.5 0.3 0
13.8 0.3 0
14.1 0.3 0
14.4 0.3 0
14.7 0.3 0
15 0.3 0
15.3 0.3 0
15.6 0.3 0
15.9 0.3 0
16.2 0.3 0
16.5 0.3 0
16.8 0.3 0
17.1 0.3 0
17.4 0.3 0
17.7 0.3 0
18 0.3 0
18.3 0.3 0
18.6 0.3 0
18.9 0.3 0
19.2 0.3 0
19.5 0.3 0
19.8 0.3 0
20.1 0.3 0
20.4 0.3 0
20.7 0.3 0
21 0.3 0
21.3 0.3 0
21.6 0.3 0
21.9 0.3 0
22.2 0.3 0
22.5 0.3 0
22.8 0.3 0
23.1 0.3 0
23.4 0.3 0
23.7 0.3 0
24 0.3 0
24.3 0.3 0
24.6 0.3 0
24.9 0.3 0
25.2 0.3 0
25.5 0.3 0
25.8 0.3 0
26.1 0.3 0
26.4 0.3 0
26.7 0.3 0
27 0.3 0
27.3 0.3 0
27.6 0.3 0
27.9 0.3 0
28.2 0.3 0
28.5 0.3 0
28.8 0.3 0
29.1 0.3 0
29.4 0.3 0
29.7 0.3 0
30 0.3 0
30.3 0.3 0
0 0.4 0
0.3 0.4 0
0.6 0.4 0
0.9 0.4 0
1.2 0.4 0
1.5 0.4 0
1.8 0.4 0
2.1 0.4 0
2.4 0.4 0
2.7 0.4 0
3 0.4 0
3.3 0.4 0
3.6 0.4 0
3.9 0.4 0
4.2 0.4 0
4.5 0.4 0
4.8 0.4 0
5.1 0.4 0
5.4 0.4 0
5.7 0.4 0
6 0.4 0
6.3 0.4 0
6.6 0.4 0
6.9 0.4 0
7.2 0.4 0
7.5 0.4 0
7.8 0.4 0
8.1 0.4 0
8.4 0.4 0
8.7 0.4 0
9 0.4 0
9.3 0.4 0
9.6 0.4 0
9.9 0.4 0
10.2 0.4 0
10.5 0.4 0
10.8 0.4 0
11.1 0.4 0
11.4 0.4 0
11.7 0.4 0
12 0.4 0
12.3 0.4 0
12.6 0.4 0
12.9 0.4 0
13.2 0.4 0
13.5 0.4 0
13.8 0.4 0
14.1 0.4 0
14.4 0.4 0
14.7 0.4 0
15 0.4 0
15.3 0.4 0
15.6 0.4 0
15.9 0.4 0
16.2 0.4 0
16.5 0.4 0
16.8 0.4 0
17.1 0.4 0
17.4 0.4 0
17.7 0.4 0
18 0.4 0
18.3 0.4 0
18.6 0.4 0
18.9 0.4 0
19.2 0.4 0
19.5 0.4 0
19.8 0.4 0
20.1 0.4 0
20.4 0.4 0
20.7 0.4 0
21 0.4 0
21.3 0.4 0
21.6 0.4 0
21.9 0.4 0
22.2 0.4 0
22.5 0.4 0
22.8 0.4 0
23.1 0.4 0
23.4 0.4 0
23.7 0.4 0
24 0.4 0
24.3 0.4 0
24.6 0.4 0
24.9 0.4 0
25.2 0.4 0
25.5 0.4 0
25.8 0.4 0
26.1 0.4 0
26.4 0.4 0
26.7 0.4 0
27 0.4 0
27.3 0.4 0
27.6 0.4 0
27.9 0.4 0
28.2 0.4 0
28.5 0.4 0
28.8 0.4 0
29.1 0.4 0
29.4 0.4 0
29.7 0.4 0
30 0.4 0
30.3 0.4 0
0 0.5 0
0.3 0.5 0
0.6 0.5 0
0.9 0.5 0
1.2 0.5 0
1.5 0.5 0
1.8 0.5 0
2.1 0.5 0
2.4 0.5 0
2.7 0.5 0
3 0.5 0
3.3 0.5 0
3.6 0.5 0
3.9 0.5 0
4.2 0.5 0
4.5 0.5 0
4.8 0.5 0
5.1 0.5 0
5.4 0.5 0
5.7 0.5 0
6 0.5 0
6.3 0.5 0
6.6 0.5 0
6.9 0.5 0
7.2 0.5 0
7.5 0.5 0
7.8 0.5 0
8.1 0.5 0
8.4 0.5 0
8.7 0.5 0
9 0.5 0
9.3 0.5 0
9.6 0.5 0
9.9 0.5 0
10.2 0.5 0
10.5 0.5 0
10.8 0.5 0
11.1 0.5 0
11.4 0.5 0
11.7 0.5 0
12 0.5 0
12.3 0.5 0
12.6 0.5 0
12.9 0.5 0
13.2 0.5 0
13.5 0.5 0
13.8 0.5 0
14.1 0.5 0
14.4 0.5 0
14.7 0.5 0
15 0.5 0
15.3 0.5 0
15.6 0.5 0
15.9 0.5 0
16.2 0.5 0
16.5 0.5 0
16.8 0.5 0
17.1 0.5 0
17.4 0.5 0
17.7 0.5 0
18 0.5 0
18.3 0.5 0
18.6 0.5 0
18.9 0.5 0
19.2 0.5 0
19.5 0.5 0
19.8 0.5 0
20.1 0.5 0
20.4 0.5 0
20.7 0.5 0
21 0.5 0
21.3 0.5 0
21.6 0.5 0
21.9 0.5 0
22.2 0.5 0
22.5 0.5 0
22.8 0.5 0
23.1 0.5 0
23.4 0.5 0
23.7 0.5 0
24 0.5 0
24.3 0.5 0
24.6 0.5 0
24.9 0.5 0
25.2 0.5 0
25.5 0.5 0
25.8 0.5 0
26.1 0.5 0
26.4 0.5 0
26.7 0.5 0
27 0.5 0
27.3 0.5 0
27.6 0.5 0
27.9 0.5 0
28.2 0.5 0
28.5 0.5 0
28.8 0.5 0
29.1 0.5 0
29.4 0.5 0
29.7 0.5 0
30 0.5 0
30.3 0.5 0
0 0.6 0
0.3 0.6 0
0.6 0.6 0
0.9 0.6 0
1.2 0.6 0
1.5 0.6 0
1.8 0.6 0
2.1 0.6 0
2.4 0.6 0
2.7 0.6 0
3 0.6 0
3.3 0.6 0
3.6 0.6 0
3.9 0.6 0
4.2 0.6 0
4.5 0.6 0
4.8 0.6 0
5.1 0.6 0
5.4 0.6 0
5.7 0.6 0
6 0.6 0
6.3 0.6 0
6.6 0.6 0
6.9 0.6 0
7.2 0.6 0
7.5 0.6 0
7.8 0.6 0
8.1 0.6 0
8.4 0.6 0
8.7 0.6 0
9 0.6 0
9.3 0.6 0
9.6 0.6 0
9.9 0.6 0
10.2 0.6 0
10.5 0.6 0
10.8 0.6 0
11.1 0.6 0
11.4 0.6 0
11.7 0.6 0
12 0.6 0
12.3 0.6 0
12.6 0.6 0
12.9 0.6 0
13.2 0.6 0
13.5 0.6 0
13.8 0.6 0
14.1 0.6 0
14.4 0.6 0
14.7 0.6 0
15 0.6 0
15.3 0.6 0
15.6 0.6 0
15.9 0.6 0
16.2 0.6 0
16.5 0.6 0
16.8 0.6 0
17.1 0.6 0
17.4 0.6 0
17.7 0.6 0
18 0.6 0
18.3 0.6 0
18.6 0.6 0
18.9 0.6 0
19.2 0.6 0
19.5 0.6 0
19.8 0.6 0
20.1 0.6 0
20.4 0.6 0
20.7 0.6 0
21 0.6 0
21.3 0.6 0
21.6 0.6 0
21.9 0.6 0
22.2 0.6 0
22.5 0.6 0
22.8 0.6 0
23.1 0.6 0
23.4 0.6 0
23.7 0.6 0
24 0.6 0
24.3 0.6 0
24.6 0.6 0
24.9 0.6 0
25.2 0.6 0
25.5 0.6 0
25.8 0.6 0
26.1 0.6 0
26.4 0.6 0
26.7 0.6 0
27 0.6 0
27.3 0.6 0
27.6 0.6 0
27.9 0.6 0
28.2 0.6 0
28.5 0.6 0
28.8 0.6 0
29.1 0.6 0
29.4 0.6 0
29.7 0.6 0
30 0.6 0
30.3 0.6 0
0 0.7 0
0.3 0.7 0
0.6 0.7 0
0.9 0.7 0
1.2 0.7 0
1.5 0.7 0
1.8 0.7 0
2.1 0.7 0
2.4 0.7 0
2.7 0.7 0
3 0.7 0
3.3 0.7 0
3.6 0.7 0
3.9 0.7 0
4.2 0.7 0
4.5 0.7 0
4.8 0.7 0
5.1 0.7 0
5.4 0.7 0
5.7 0.7 0
6 0.7 0
6.3 0.7 0
6.6 0.7 0
6.9 0.7 0
7.2 0.7 0
7.5 0.7 0
7.8 0.7 0
8.1 0.7 0
8.4 0.7 0
8.7 0.7 0
9 0.7 0
9.3 0.7 0
9.6 0.7 0
9.9 0.7 0
10.2 0.7 0
10.5 0.7 0
10.8 0.7 0
11.1 0.7 0
11.4 0.7 0
11.7 0.7 0
12 0.7 0
12.3 0.7 0
12.6 0.7 0
12.9 0.7 0
13.2 0.7 0
13.5 0.7 0
13.8 0.7 0
14.1 0.7 0
14.4 0.7 0
14.7 0.7 0
15 0.7 0
15.3 0.7 0
15.6 0.7 0
15.9 0.7 0
16.2 0.7 0
16.5 0.7 0
16.8 0.7 0
17.1 0.7 0
17.4 0.7 0
17.7 0.7 0
18 0.7 0
18.3 0.7 0
18.6 0.7 0
18.9 0.7 0
19.2 0.7 0
19.5 0.7 0
19.8 0.7 0
20.1 0.7 0
20.4 0.7 0
20.7 0.7 0
21 0.7 0
21.3 0.7 0
21.6 0.7 0
21.9 0.7 0
22.2 0.7 0
22.5 0.7 0
22.8 0.7 0
23.1 0.7 0
23.4 0.7 0
23.7 0.7 0
24 0.7 0
24.3 0.7 0
24.6 0.7 0
24.9 0.7 0
25.2 0.7 0
25.5 0.7 0
25.8 0.7 0
26.1 0.7 0
26.4 0.7 0
26.7 0.7 0
27 0.7 0
27.3 0.7 0
27.6 0.7 0
27.9 0.7 0
28.2 0.7 0
28.5 0.7 0
28.8 0.7 0
29.1 0.7 0
29.4 0.7 0
29.7 0.7 0
30 0.7 0
30.3 0.7 0
0 0.8 0
0.3 0.8 0
0.6 0.8 0
0.9 0.8 0
1.2 0.8 0
1.5 0.8 0
1.8 0.8 0
2.1 0.8 0
2.4 0.8 0
2.7 0.8 0
3 0.8 0
3.3 0.8 0
3.6 0.8 0
3.9 0.8 0
4.2 0.8 0
4.5 0.8 0
4.8 0.8 0
5.1 0.8 0
5.4 0.8 0
5.7 0.8 0
6 0.8 0
6.3 0.8 0
6.6 0.8 0
6.9 0.8 0
7.2 0.8 0
7.5 0.8 0
7.8 0.8 0
8.1 0.8 0
8.4 0.8 0
8.7 0.8 0
9 0.8 0
9.3 0.8 0
9.6 0.8 0
9.9 0.8 0
10.2 0.8 0
10.5 0.8 0
10.8 0.8 0
11.1 0.8 0
11.4 0.8 0
11.7 0.8 0
12 0.8 0
12.3 0.8 0
12.6 0.8 0
12.9 0.8 0
13.2 0.8 0
13.5 0.8 0
13.8 0.8 0
14.1 0.8 0
14.4 0.8 0
14.7 0.8 0
15 0.8 0
15.3 0.8 0
15.6 0.8 0
15.9 0.8 0
16.2 0.8 0
16.5 0.8 0
16.8 0.8 0
17.1 0.8 0
17.4 0.8 0
17.7 0.8 0
18 0.8 0
18.3 0.8 0
18.6 0.8 0
18.9 0.8 0
19.2 0.8 0
19.5 0.8 0
19.8 0.8 0
20.1 0.8 0
20.4 0.8 0
20.7 0.8 0
21 0.8 0
21.3 0.8 0
21.6 0.8 0
21.9 0.8 0
22.2 0.8 0
22.5 0.8 0
22.8 0.8 0
23.1 0.8 0
23.4 0.8 0
23.7 0.8 0
24 0.8 0
24.3 0.8 0
24.6 0.8 0
24.9 0.8 0
25.2 0.8 0
25.5 0.8 0
25.8 0.8 0
26.1 0.8 0
26.4 0.8 0
26.7 0.8 0
27 0.8 0
27.3 0.8 0
27.6 0.8 0
27.9 0.8 0
28.2 0.8 0
28.5 0.8 0
28.8 0.8 0
29.1 0.8 0
29.4 0.8 0
29.7 0.8 0
30 0.8 0
30.3 0.8 0
0 0.9 0
0.3 0.9 0
0.6 0.9 0
0.9 0.9 0
1.2 0.9 0
1.5 0.9 0
1.8 0.9 0
2.1 0.9 0
2.4 0.9 0
2.7 0.9 0
3 0.9 0
3.3 0.9 0
3.6 0.9 0
3.9 0.9 0
4.2 0.9 0
4.5 0.9 0
4.8 0.9 0
5.1 0.9 0
5.4 0.9 0
5.7 0.9 0
6 0.9 0
6.3 0.9 0
6.6 0.9 0
6.9 0.9 0
7.2 0.9 0
7.5 0.9 0
7.8 0.9 0
8.1 0.9 0
8.4 0.9 0
8.7 0.9 0
9 0.9 0
9.3 0.9 0
9.6 0.9 0
9.9 0.9 0
10.2 0.9 0
10.5 0.9 0
10.8 0.9 0
11.1 0.9 0
11.4 0.9 0
11.7 0.9 0
12 0.9 0
12.3 0.9 0
12.6 0.9 0
12.9 0.9 0
13.2 0.9 0
13.5 0.9 0
13.8 0.9 0
14.1 0.9 0
14.4 0.9 0
14.7 0.9 0
15 0.9 0
15.3 0.9 0
15.6 0.9 0
15.9 0.9 0
16.2 0.9 0
16.5 0.9 0
16.8 0.9 0
17.1 0.9 0
17.4 0.9 0
17.7 0.9 0
18 0.9 0
18.3 0.9 0
18.6 0.9 0
18.9 0.9 0
19.2 0.9 0
19.5 0.9 0
19.8 0.9 0
20.1 0.9 0
20.4 0.9 0
20.7 0.9 0
21 0.9 0
21.3 0.9 0
21.6 0.9 0
21.9 0.9 0
22.2 0.9 0
22.5 0.9 0
22.8 0.9 0
23.1 0.9 0
23.4 0.9 0
23.7 0.9 0
24 0.9 0
24.3 0.9 0
24.6 0.9 0
24.9 0.9 0
25.2 0.9 0
25.5 0.9 0
25.8 0.9 0
26.1 0.9 0
26.4 0.9 0
26.7 0.9 0
27 0.9 0
27.3 0.9 0
27.6 0.9 0
27.9 0.9 0
28.2 0.9 0
28.5 0.9 0
28.8 0.9 0
29.1 0.9 0
29.4 0.9 0
29.7 0.9 0
30 0.9 0
30.3 0.9 0
0 1 0
0.3 1 0
0.6 1 0
0.9 1 0
1.2 1 0
1.5 1 0
1.8 1 0
2.1 1 0
2.4 1 0
2.7 1 0
3 1 0
3.3 1 0
3.6 1 0
3.9 1 0
4.2 1 0
4.5 1 0
4.8 1 0
5.1 1 0
5.4 1 0
5.7 1 0
6 1 0
6.3 1 0
6.6 1 0
6.9 1 0
7.2 1 0
7.5 1 0
7.8 1 0
8.1 1 0
8.4 1 0
8.7 1 0
9 1 0
9.3 1 0
9.6 1 0
9.9 1 0
10.2 1 0
10.5 1 0
10.8 1 0
11.1 1 0
11.4 1 0
11.7 1 0
12 1 0
12.3 1 0
12.6 1 0
12.9 1 0
13.2 1 0
13.5 1 0
13.8 1 0
14.1 1 0
14.4 1 0
14.7 1 0
15 1 0
15.3 1 0
15.6 1 0
15.9 1 0
16.2 1 0
16.5 1 0
16.8 1 0
17.1 1 0
17.4 1 0
17.7 1 0
18 1 0
18.3 1 0
18.6 1 0
18.9 1 0
19.2 1 0
19.5 1 0
19.8 1 0
20.1 1 0
20.4 1 0
20.7 1 0
21 1 0
21.3 1 0
21.6 1 0
21.9 1 0
22.2 1 0
22.5 1 0
22.8 1 0
23.1 1 0
23.4 1 0
23.7 1 0
24 1 0
24.3 1 0
24.6 1 0
24.9 1 0
25.2 1 0
25.5 1 0
25.8 1 0
26.1 1 0
26.4 1 0
26.7 1 0
27 1 0
27.3 1 0
27.6 1 0
27.9 1 0
28.2 1 0
28.5 1 0
28.8 1 0
29.1 1 0
29.4 1 0
29.7 1 0
30 1 0
30.3 1 0
0 1.1 0
0.3 1.1 0
0.6 1.1 0
0.9 1.1 0
1.2 1.1 0
1.5 1.1 0
1.8 1.1 0
2.1 1.1 0
2.4 1.1 0
2.7 1.1 0
3 1.1 0
3.3 1.1 0
3.6 1.1 0
3.9 1.1 0
4.2 1.1 0
4.5 1.1 0
4.8 1.1 0
5.1 1.1 0
5.4 1.1 0
5.7 1.1 0
6 1.1 0
6.3 1.1 0
6.6 1.1 0
6.9 1.1 0
7.2 1.1 0
7.5 1.1 0
7.8 1.1 0
8.1 1.1 0
8.4 1.1 0
8.7 1.1 0
9 1.1 0
9.3 1.1 0
9.6 1.1 0
9.9 1.1 0
10.2 1.1 0
10.5 1.1 0
10.8 1.1 0
11.1 1.1 0
11.4 1.1 0
11.7 1.1 0
12 1.1 0
12.3 1.1 0
12.6 1.1 0
12.9 1.1 0
13.2 1.1 0
13.5 1.1 0
13.8 1.1 0
14.1 1.1 0
14.4 1.1 0
14.7 1.1 0
15 1.1 0
15.3 1.1 0
15.6 1.1 0
15.9 1.1 0
16.2 1.1 0
16.5 1.1 0
16.8 1.1 0
17.1 1.1 0
17.4 1.1 0
17.7 1.1 0
18 1.1 0
18.3 1.1 0
18.6 1.1 0
18.9 1.1 0
19.2 1.1 0
19.5 1.1 0
19.8 1.1 0
20.1 1.1 0
20.4 1.1 0
20.7 1.1 0
21 1.1 0
21.3 1.1 0
21.6 1.1 0
21.9 1.1 0
22.2 1.1 0
22.5 1.1 0
22.8 1.1 0
23.1 1.1 0
23.4 1.1 0
23.7 1.1 0
24 1.1 0
24.3 1.1 0
24.6 1.1 0
24.9 1.1 0
25.2 1.1 0
25.5 1.1 0
25.8 1.1 0
26.1 1.1 0
26.4 1.1 0
26.7 1.1 0
27 1.1 0
27.3 1.1 0
27.6 1.1 0
27.9 1.1 0
28.2 1.1 0
28.5 1.1 0
28.8 1.1 0
29.1 1.1 0
29.4 1.1 0
29.7 1.1 0
30 1.1 0
30.3 1.1 0

POINT_DATA 1224

SCALARS phi double
LOOKUP_TABLE default
0.999997
1
0.999986
0.999856
0.999428
0.998469
0.99678
0.994238
0.990799
0.986475
0.981316
0.975395
0.968798
0.96162
0.953954
0.945889
0.937501
0.928842
0.919929
0.910732
0.901171
0.891118
0.880411
0.868867
0.856305
0.842561
0.827509
0.811063
0.79319
0.773906
0.753271
0.731388
0.708386
0.684422
0.659663
0.634284
0.608461
0.582362
0.556147
0.529965
0.503949
0.478218
0.452875
0.428008
0.403691
0.379983
0.356934
0.33458
0.312948
0.292057
0.271921
0.252545
0.233931
0.21608
0.198988
0.18265
0.167062
0.152219
0.13812
0.124761
0.112143
0.100267
0.0891359
0.0787522
0.069118
0.0602339
0.0520972
0.044701
0.038033
0.0320749
0.0268015
0.0221811
0.0181756
0.0147414
0.0118308
0.00939291
0.00737572
0.0057272
0.00439684
0.00333688
0.00250317
0.00185589
0.00135986
0.000984676
0.000704589
0.000498211
0.000348116
0.000240366
0.000164008
0.00011059
7.36962e-05
4.85365e-05
3.15944e-05
2.03281e-05
1.29287e-05
8.12857e-06
5.05247e-06
3.10521e-06
1.88571e-06
1.13999e-06
6.36548e-07
6.36548e-07
0.999997
1
0.999986
0.999856
0.999428
0.998469
0.99678
0.994238
0.990799
0.986475
0.981316
0.975395
0.968798
0.96162
0.953954
0.945889
0.937501
0.928842
0.919929
0.910732
0.901171
0.891118
0.880411
0.868867
0.856305
0.842561
0.827509
0.811063
0.79319
0.773906
0.753271
0.731388
0.708386
0.684422
0.659663
0.634284
0.608461
0.582362
0.556147
0.529965
0.503949
0.478218
0.452875
0.428008
0.403691
0.379983
0.356934
0.33458
0.312948
0.292057
0.271921
0.252545
0.233931
0.21608
0.198988
0.18265
0.167062
0.152219
0.13812
0.124761
0.112143
0.100267
0.0891359
0.0787522
0.069118
0.0602339
0.0520972
0.044701
0.038033
0.0320749
0.0268015
0.0221811
0.0181756
0.0147414
0.0118308
0.00939291
0.00737572
0.0057272
0.00439684
0.00333688
0.00250317
0.00185589
0.00135986
0.000984676
0.000704589
0.000498211
0.000348116
0.000240366
0.000164008
0.00011059
7.36962e-05
4.85365e-05
3.15944e-05
2.03281e-05
1.29287e-05
8.12857e-06
5.05247e-06
3.10521e-06
1.88571e-06
1.13999e-06
6.36548e-07
6.36548e-07
0.999991
1.00001
0.999806
0.999198
0.997961
0.995904
0.992926
0.989008
0.984195
0.978565
0.972214
0.96524
0.957742
0.949812
0.941536
0.932994
0.924252
0.915366
0.906371
0.897278
0.888063
0.878671
0.869008
0.858957
0.848378
0.837128
0.825065
0.81207
0.798046
0.78293
0.766693
0.749341
0.730914
0.711479
0.691126
0.669963
0.64811
0.625694
0.602845
0.579691
0.556354
0.53295
0.509587
0.486362
0.463362
0.440664
0.418332
0.396424
0.374984
0.354051
0.333655
0.313819
0.294558
0.275884
0.257804
0.24032
0.223432
0.207139
0.191436
0.176321
0.161791
0.147846
0.13449
0.121729
0.109575
0.0980426
0.0871517
0.0769233
0.0673793
0.0585394
0.0504197
0.0430297
0.0363707
0.0304345
0.0252023
0.0206454
0.0167255
0.0133964
0.0106061
0.00829826
0.00641529
0.00489987
0.00369699
0.00275533
0.00202832
0.00147477
0.00105908
0.000751203
0.000526275
0.000364174
0.000248924
0.000168077
0.000112113
7.38829e-05
4.81063e-05
3.09502e-05
1.96771e-05
1.23645e-05
7.67246e-06
4.74327e-06
2.68843e-06
2.68843e-06
1.00019
0.999812
0.997464
0.993419
0.987789
0.980769
0.972643
0.963715
0.954249
0.944451
0.934478
0.924439
0.914415
0.904461
0.894619
0.884916
0.875371
0.865998
0.856802
0.847779
0.838916
0.830183
0.821535
0.812909
0.804224
0.795387
0.786296
0.776844
0.766928
0.756453
0.745339
0.733522
0.720957
0.707621
0.69351
0.67864
0.663043
0.646766
0.629868
0.612415
0.594481
0.576142
0.557477
0.53856
0.519468
0.500271
0.481034
0.46182
0.442681
0.423669
0.404826
0.38619
0.367792
0.349659
0.33181
0.314263
0.297026
0.280106
0.263503
0.247217
0.231244
0.21558
0.200224
0.185179
0.170457
0.156078
0.142075
0.12849
0.11538
0.102806
0.0908399
0.0795503
0.0690037
0.0592576
0.050356
0.0423261
0.0351764
0.0288962
0.0234559
0.0188098
0.0148988
0.0116544
0.00900209
0.00686557
0.00516966
0.00384314
0.0028206
0.00204377
0.00146207
0.00103269
0.000720195
0.000495955
0.000337268
0.000226507
0.000150245
9.8439e-05
6.37116e-05
4.07428e-05
2.57174e-05
1.61801e-05
9.3051e-06
9.3051e-06
1.00542
0.994581
0.97508
0.954125
0.933452
0.913655
0.895039
0.877742
0.861776
0.84707
0.833512
0.820982
0.809362
0.798543
0.78843
0.77894
0.770002
0.761555
0.753544
0.745924
0.738652
0.731687
0.724987
0.718506
0.712196
0.705999
0.699854
0.693693
0.687445
0.681034
0.67439
0.667441
0.660123
0.652379
0.644163
0.635435
0.626171
0.616353
0.605977
0.595048
0.583577
0.571587
0.559103
0.546157
0.532784
0.519023
0.504912
0.49049
0.475798
0.460872
0.44575
0.430465
0.41505
0.399535
0.383944
0.368301
0.352623
0.336923
0.32121
0.305487
0.289753
0.274005
0.258236
0.242447
0.22664
0.210833
0.195054
0.179354
0.163801
0.148484
0.133509
0.118995
0.105068
0.09185
0.0794569
0.0679861
0.0575126
0.048084
0.0397188
0.0324068
0.0261112
0.0207726
0.0163144
0.0126482
0.00967894
0.00731065
0.00545011
0.00401032
0.00291265
0.00208809
0.0014777
0.00103235
0.00071204
0.000484903
0.000326074
0.000216536
0.000142015
9.20099e-05
5.88232e-05
3.74937e-05
2.1817e-05
2.1817e-05
1.08202
0.91798
0.823015
0.765284
0.727175
0.700189
0.68008
0.66452
0.652111
0.641957
0.633457
0.626199
0.619896
0.614339
0.609379
0.604903
0.600826
0.597084
0.593624
0.590405
0.587395
0.584564
0.581888
0.579343
0.576905
0.57455
0.572249
0.569972
0.567685
0.56535
0.562927
0.560372
0.557641
0.554689
0.551471
0.547945
0.544072
0.539815
0.535142
0.530027
0.524446
0.518382
0.511824
0.504763
0.497196
0.489123
0.48055
0.471484
0.461935
0.451917
0.441445
0.430536
0.419208
0.407479
0.39537
0.382898
0.370082
0.356935
0.343468
0.32969
0.315603
0.301205
0.286495
0.271471
0.256135
0.240504
0.224605
0.208491
0.192235
0.175938
0.159726
0.143744
0.128154
0.11312
0.0988047
0.0853557
0.0728978
0.0615259
0.0513004
0.0422458
0.0343518
0.0275765
0.0218521
0.017091
0.0131926
0.01005
0.0075556
0.00560582
0.00410478
0.00296646
0.00211598
0.00148982
0.00103549
0.000710524
0.000481366
0.000322017
0.000212728
0.000138812
8.93677e-05
5.73703e-05
3.36056e-05
3.36056e-05
-0.0820204
0.0820204
0.176985
0.234716
0.272825
0.299811
0.31992
0.33548
0.347889
0.358044
0.366543
0.373801
0.380104
0.385661
0.390621
0.395097
0.399174
0.402916
0.406376
0.409595
0.412604
0.415431
0.418097
0.42062
0.423012
0.425283
0.427438
0.429479
0.431404
0.433206
0.434874
0.436393
0.437744
0.438903
0.439845
0.44054
0.440957
0.441063
0.440824
0.440206
0.439175
0.4377
0.43575
0.433295
0.43031
0.426773
0.422664
0.417968
0.412673
0.406771
0.40026
0.39314
0.385415
0.377093
0.368185
0.358704
0.348665
0.338082
0.326967
0.315334
0.303189
0.29054
0.277394
0.263757
0.249645
0.235084
0.220115
0.2048
0.189227
0.173508
0.15778
0.1422
0.12694
0.112176
0.0980771
0.0848008
0.0724789
0.061213
0.0510691
0.0420768
0.0342295
0.0274891
0.0217903
0.0170477
0.0131627
0.0100295
0.00754174
0.00559656
0.00409865
0.00296245
0.00211338
0.00148817
0.00103444
0.000709867
0.00048096
0.000321768
0.000212578
0.000138722
8.93144e-05
5.73388e-05
3.35886e-05
3.35886e-05
-0.00541873
0.00541873
0.0249201
0.0458753
0.066548
0.086345
0.104961
0.122258
0.138224
0.15293
0.166488
0.179018
0.190638
0.201457
0.21157
0.22106
0.229998
0.238446
0.246456
0.254074
0.261338
0.268283
0.274935
0.281321
0.287459
0.293368
0.29906
0.304545
0.30983
0.314916
0.319801
0.32448
0.328941
0.333168
0.337143
0.34084
0.344233
0.347289
0.349975
0.352254
0.35409
0.355444
0.356278
0.356557
0.356247
0.355316
0.353737
0.351487
0.348549
0.344908
0.340558
0.335498
0.32973
0.323264
0.316112
0.308292
0.299825
0.29073
0.281032
0.270751
0.25991
0.248531
0.23664
0.224266
0.211447
0.198232
0.184686
0.170893
0.156955
0.142993
0.129144
0.115558
0.102386
0.089779
0.0778732
0.0667874
0.0566146
0.0474183
0.0392306
0.0320526
0.025857
0.0205922
0.0161878
0.0125603
0.00961859
0.00726968
0.00542261
0.00399206
0.00290066
0.00208031
0.0014727
0.00102918
0.000710049
0.000483666
0.000325314
0.000216075
0.000141738
9.1845e-05
5.87263e-05
3.74369e-05
2.17866e-05
2.17866e-05
-0.000187533
0.000187533
0.00253635
0.00658089
0.0122109
0.0192313
0.0273566
0.0362848
0.0457513
0.0555485
0.0655223
0.075561
0.0855851
0.0955383
0.105381
0.115084
0.124629
0.134003
0.143195
0.152202
0.161018
0.169642
0.178073
0.18631
0.194352
0.202197
0.209843
0.217283
0.224512
0.231518
0.238287
0.244803
0.251042
0.25698
0.262587
0.26783
0.272673
0.277077
0.281002
0.284408
0.287254
0.2895
0.29111
0.29205
0.292289
0.291803
0.290574
0.288588
0.285838
0.282325
0.278057
0.273048
0.267316
0.260889
0.253797
0.246075
0.23776
0.228892
0.219514
0.209667
0.199397
0.18875
0.177778
0.166536
0.155089
0.143508
0.131875
0.120283
0.108833
0.0976302
0.0867847
0.0764029
0.0665844
0.0574162
0.0489684
0.0412911
0.0344124
0.0283381
0.0230525
0.0185214
0.0146948
0.0115117
0.00890334
0.00679799
0.00512392
0.00381252
0.00280033
0.0020305
0.00145348
0.00102718
0.000716709
0.000493771
0.000335915
0.000225678
0.000149742
9.81374e-05
6.35326e-05
4.06378e-05
2.56564e-05
1.61449e-05
9.28643e-06
9.28643e-06
9.11928e-06
-9.11928e-06
0.000194127
0.000801508
0.00203892
0.00409543
0.00707417
0.010992
0.015805
0.0214344
0.0277857
0.0347594
0.0422576
0.0501874
0.0584631
0.0670073
0.0757507
0.0846324
0.0935994
0.102606
0.111611
0.120582
0.129488
0.138303
0.147
0.155555
0.163943
0.172137
0.180109
0.187827
0.195256
0.202358
0.209092
0.215415
0.221281
0.226643
0.231456
0.235672
0.239247
0.242141
0.244316
0.24574
0.246387
0.246238
0.24528
0.24351
0.24093
0.237553
0.233398
0.228493
0.222872
0.216577
0.209654
0.202155
0.194136
0.185656
0.176777
0.167562
0.158076
0.148384
0.138554
0.128653
0.118752
0.10892
0.0992306
0.0897555
0.0805673
0.0717361
0.0633283
0.0554041
0.0480153
0.0412032
0.0349964
0.0294105
0.0244469
0.0200938
0.0163268
0.0131112
0.0104042
0.00815683
0.00631727
0.00483267
0.00365141
0.00272474
0.00200801
0.00146143
0.00105042
0.000745637
0.000522736
0.000361949
0.00024754
0.000167225
0.000111594
7.35704e-05
4.792e-05
3.08403e-05
1.9613e-05
1.23275e-05
7.6513e-06
4.73123e-06
2.68214e-06
2.68214e-06
2.58893e-06
-2.58893e-06
1.40367e-05
0.000143873
0.000571454
0.00153022
0.00322002
0.00576195
0.00920072
0.0135245
0.0186837
0.0246047
0.0312006
0.0383787
0.0460463
0.0541147
0.0625013
0.0711312
0.0799374
0.0888606
0.0978484
0.106854
0.115835
0.124752
0.133566
0.142238
0.150729
0.158995
0.166991
0.17467
0.181981
0.18887
0.195283
0.201165
0.206461
0.211117
0.215086
0.218319
0.220779
0.22243
0.223246
0.223211
0.222313
0.220554
0.217943
0.214498
0.210247
0.205226
0.19948
0.193059
0.186022
0.178432
0.170358
0.16187
0.153045
0.143957
0.134686
0.12531
0.115907
0.106555
0.0973295
0.0883046
0.0795503
0.0711322
0.06311
0.0555365
0.0484561
0.0419034
0.0359028
0.0304678
0.0256003
0.0212918
0.0175236
0.014268
0.0114905
0.00915074
0.00720513
0.00560825
0.00431475
0.00328081
0.00246528
0.00183055
0.00134308
0.00097369
0.000697469
0.000493645
0.000345219
0.000238546
0.000162878
0.000109895
7.32733e-05
4.82818e-05
3.14427e-05
2.02386e-05
1.28764e-05
8.09839e-06
5.03521e-06
3.09544e-06
1.88024e-06
1.13694e-06
6.34974e-07
6.34974e-07
2.58893e-06
-2.58893e-06
1.40367e-05
0.000143873
0.000571454
0.00153022
0.00322002
0.00576195
0.00920072
0.0135245
0.0186837
0.0246047
0.0312006
0.0383787
0.0460463
0.0541147
0.0625013
0.0711312
0.0799374
0.0888606
0.0978484
0.106854
0.115835
0.124752
0.133566
0.142238
0.150729
0.158995
0.166991
0.17467
0.181981
0.18887
0.195283
0.201165
0.206461
0.211117
0.215086
0.218319
0.220779
0.22243
0.223246
0.223211
0.222313
0.220554
0.217943
0.214498
0.210247
0.205226
0.19948
0.193059
0.186022
0.178432
0.170358
0.16187
0.153045
0.143957
0.134686
0.12531
0.115907
0.106555
0.0973295
0.0883046
0.0795503
0.0711322
0.06311
0.0555365
0.0484561
0.0419034
0.0359028
0.0304678
0.0256003
0.0212918
0.0175236
0.014268
0.0114905
0.00915074
0.00720513
0.00560825
0.00431475
0.00328081
0.00246528
0.00183055
0.00134308
0.00097369
0.000697469
0.000493645
0.000345219
0.000238546
0.000162878
0.000109895
7.32733e-05
4.82818e-05
3.14427e-05
2.02386e-05
1.28764e-05
8.09839e-06
5.03521e-06
3.09544e-06
1.88024e-06
1.13694e-06
6.34974e-07
6.34974e-07
