# vtk DataFile Version 2.0
FlowField
ASCII
DATASET STRUCTURED_GRID
DIMENSIONS 102 13 1 
POINTS 1326 double
0 0 0
0.3 0 0
0.6 0 0
0.9 0 0
1.2 0 0
1.5 0 0
1.8 0 0
2.1 0 0
2.4 0 0
2.7 0 0
3 0 0
3.3 0 0
3.6 0 0
3.9 0 0
4.2 0 0
4.5 0 0
4.8 0 0
5.1 0 0
5.4 0 0
5.7 0 0
6 0 0
6.3 0 0
6.6 0 0
6.9 0 0
7.2 0 0
7.5 0 0
7.8 0 0
8.1 0 0
8.4 0 0
8.7 0 0
9 0 0
9.3 0 0
9.6 0 0
9.9 0 0
10.2 0 0
10.5 0 0
10.8 0 0
11.1 0 0
11.4 0 0
11.7 0 0
12 0 0
12.3 0 0
12.6 0 0
12.9 0 0
13.2 0 0
13.5 0 0
13.8 0 0
14.1 0 0
14.4 0 0
14.7 0 0
15 0 0
15.3 0 0
15.6 0 0
15.9 0 0
16.2 0 0
16.5 0 0
16.8 0 0
17.1 0 0
17.4 0 0
17.7 0 0
18 0 0
18.3 0 0
18.6 0 0
18.9 0 0
19.2 0 0
19.5 0 0
19.8 0 0
20.1 0 0
20.4 0 0
20.7 0 0
21 0 0
21.3 0 0
21.6 0 0
21.9 0 0
22.2 0 0
22.5 0 0
22.8 0 0
23.1 0 0
23.4 0 0
23.7 0 0
24 0 0
24.3 0 0
24.6 0 0
24.9 0 0
25.2 0 0
25.5 0 0
25.8 0 0
26.1 0 0
26.4 0 0
26.7 0 0
27 0 0
27.3 0 0
27.6 0 0
27.9 0 0
28.2 0 0
28.5 0 0
28.8 0 0
29.1 0 0
29.4 0 0
29.7 0 0
30 0 0
30.3 0 0
0 0.1 0
0.3 0.1 0
0.6 0.1 0
0.9 0.1 0
1.2 0.1 0
1.5 0.1 0
1.8 0.1 0
2.1 0.1 0
2.4 0.1 0
2.7 0.1 0
3 0.1 0
3.3 0.1 0
3.6 0.1 0
3.9 0.1 0
4.2 0.1 0
4.5 0.1 0
4.8 0.1 0
5.1 0.1 0
5.4 0.1 0
5.7 0.1 0
6 0.1 0
6.3 0.1 0
6.6 0.1 0
6.9 0.1 0
7.2 0.1 0
7.5 0.1 0
7.8 0.1 0
8.1 0.1 0
8.4 0.1 0
8.7 0.1 0
9 0.1 0
9.3 0.1 0
9.6 0.1 0
9.9 0.1 0
10.2 0.1 0
10.5 0.1 0
10.8 0.1 0
11.1 0.1 0
11.4 0.1 0
11.7 0.1 0
12 0.1 0
12.3 0.1 0
12.6 0.1 0
12.9 0.1 0
13.2 0.1 0
13.5 0.1 0
13.8 0.1 0
14.1 0.1 0
14.4 0.1 0
14.7 0.1 0
15 0.1 0
15.3 0.1 0
15.6 0.1 0
15.9 0.1 0
16.2 0.1 0
16.5 0.1 0
16.8 0.1 0
17.1 0.1 0
17.4 0.1 0
17.7 0.1 0
18 0.1 0
18.3 0.1 0
18.6 0.1 0
18.9 0.1 0
19.2 0.1 0
19.5 0.1 0
19.8 0.1 0
20.1 0.1 0
20.4 0.1 0
20.7 0.1 0
21 0.1 0
21.3 0.1 0
21.6 0.1 0
21.9 0.1 0
22.2 0.1 0
22.5 0.1 0
22.8 0.1 0
23.1 0.1 0
23.4 0.1 0
23.7 0.1 0
24 0.1 0
24.3 0.1 0
24.6 0.1 0
24.9 0.1 0
25.2 0.1 0
25.5 0.1 0
25.8 0.1 0
26.1 0.1 0
26.4 0.1 0
26.7 0.1 0
27 0.1 0
27.3 0.1 0
27.6 0.1 0
27.9 0.1 0
28.2 0.1 0
28.5 0.1 0
28.8 0.1 0
29.1 0.1 0
29.4 0.1 0
29.7 0.1 0
30 0.1 0
30.3 0.1 0
0 0.2 0
0.3 0.2 0
0.6 0.2 0
0.9 0.2 0
1.2 0.2 0
1.5 0.2 0
1.8 0.2 0
2.1 0.2 0
2.4 0.2 0
2.7 0.2 0
3 0.2 0
3.3 0.2 0
3.6 0.2 0
3.9 0.2 0
4.2 0.2 0
4.5 0.2 0
4.8 0.2 0
5.1 0.2 0
5.4 0.2 0
5.7 0.2 0
6 0.2 0
6.3 0.2 0
6.6 0.2 0
6.9 0.2 0
7.2 0.2 0
7.5 0.2 0
7.8 0.2 0
8.1 0.2 0
8.4 0.2 0
8.7 0.2 0
9 0.2 0
9.3 0.2 0
9.6 0.2 0
9.9 0.2 0
10.2 0.2 0
10.5 0.2 0
10.8 0.2 0
11.1 0.2 0
11.4 0.2 0
11.7 0.2 0
12 0.2 0
12.3 0.2 0
12.6 0.2 0
12.9 0.2 0
13.2 0.2 0
13.5 0.2 0
13.8 0.2 0
14.1 0.2 0
14.4 0.2 0
14.7 0.2 0
15 0.2 0
15.3 0.2 0
15.6 0.2 0
15.9 0.2 0
16.2 0.2 0
16.5 0.2 0
16.8 0.2 0
17.1 0.2 0
17.4 0.2 0
17.7 0.2 0
18 0.2 0
18.3 0.2 0
18.6 0.2 0
18.9 0.2 0
19.2 0.2 0
19.5 0.2 0
19.8 0.2 0
20.1 0.2 0
20.4 0.2 0
20.7 0.2 0
21 0.2 0
21.3 0.2 0
21.6 0.2 0
21.9 0.2 0
22.2 0.2 0
22.5 0.2 0
22.8 0.2 0
23.1 0.2 0
23.4 0.2 0
23.7 0.2 0
24 0.2 0
24.3 0.2 0
24.6 0.2 0
24.9 0.2 0
25.2 0.2 0
25.5 0.2 0
25.8 0.2 0
26.1 0.2 0
26.4 0.2 0
26.7 0.2 0
27 0.2 0
27.3 0.2 0
27.6 0.2 0
27.9 0.2 0
28.2 0.2 0
28.5 0.2 0
28.8 0.2 0
29.1 0.2 0
29.4 0.2 0
29.7 0.2 0
30 0.2 0
30.3 0.2 0
0 0.3 0
0.3 0.3 0
0.6 0.3 0
0.9 0.3 0
1.2 0.3 0
1.5 0.3 0
1.8 0.3 0
2.1 0.3 0
2.4 0.3 0
2.7 0.3 0
3 0.3 0
3.3 0.3 0
3.6 0.3 0
3.9 0.3 0
4.2 0.3 0
4.5 0.3 0
4.8 0.3 0
5.1 0.3 0
5.4 0.3 0
5.7 0.3 0
6 0.3 0
6.3 0.3 0
6.6 0.3 0
6.9 0.3 0
7.2 0.3 0
7.5 0.3 0
7.8 0.3 0
8.1 0.3 0
8.4 0.3 0
8.7 0.3 0
9 0.3 0
9.3 0.3 0
9.6 0.3 0
9.9 0.3 0
10.2 0.3 0
10.5 0.3 0
10.8 0.3 0
11.1 0.3 0
11.4 0.3 0
11.7 0.3 0
12 0.3 0
12.3 0.3 0
12.6 0.3 0
12.9 0.3 0
13.2 0.3 0
13.5 0.3 0
13.8 0.3 0
14.1 0.3 0
14.4 0.3 0
14.7 0.3 0
15 0.3 0
15.3 0.3 0
15.6 0.3 0
15.9 0.3 0
16.2 0.3 0
16.5 0.3 0
16.8 0.3 0
17.1 0.3 0
17.4 0.3 0
17.7 0.3 0
18 0.3 0
18.3 0.3 0
18.6 0.3 0
18.9 0.3 0
19.2 0.3 0
19.5 0.3 0
19.8 0.3 0
20.1 0.3 0
20.4 0.3 0
20.7 0.3 0
21 0.3 0
21.3 0.3 0
21.6 0.3 0
21.9 0.3 0
22.2 0.3 0
22.5 0.3 0
22.8 0.3 0
23.1 0.3 0
23.4 0.3 0
23.7 0.3 0
24 0.3 0
24.3 0.3 0
24.6 0.3 0
24.9 0.3 0
25.2 0.3 0
25.5 0.3 0
25.8 0.3 0
26.1 0.3 0
26.4 0.3 0
26.7 0.3 0
27 0.3 0
27.3 0.3 0
27.6 0.3 0
27.9 0.3 0
28.2 0.3 0
28.5 0.3 0
28.8 0.3 0
29.1 0.3 0
29.4 0.3 0
29.7 0.3 0
30 0.3 0
30.3 0.3 0
0 0.4 0
0.3 0.4 0
0.6 0.4 0
0.9 0.4 0
1.2 0.4 0
1.5 0.4 0
1.8 0.4 0
2.1 0.4 0
2.4 0.4 0
2.7 0.4 0
3 0.4 0
3.3 0.4 0
3.6 0.4 0
3.9 0.4 0
4.2 0.4 0
4.5 0.4 0
4.8 0.4 0
5.1 0.4 0
5.4 0.4 0
5.7 0.4 0
6 0.4 0
6.3 0.4 0
6.6 0.4 0
6.9 0.4 0
7.2 0.4 0
7.5 0.4 0
7.8 0.4 0
8.1 0.4 0
8.4 0.4 0
8.7 0.4 0
9 0.4 0
9.3 0.4 0
9.6 0.4 0
9.9 0.4 0
10.2 0.4 0
10.5 0.4 0
10.8 0.4 0
11.1 0.4 0
11.4 0.4 0
11.7 0.4 0
12 0.4 0
12.3 0.4 0
12.6 0.4 0
12.9 0.4 0
13.2 0.4 0
13.5 0.4 0
13.8 0.4 0
14.1 0.4 0
14.4 0.4 0
14.7 0.4 0
15 0.4 0
15.3 0.4 0
15.6 0.4 0
15.9 0.4 0
16.2 0.4 0
16.5 0.4 0
16.8 0.4 0
17.1 0.4 0
17.4 0.4 0
17.7 0.4 0
18 0.4 0
18.3 0.4 0
18.6 0.4 0
18.9 0.4 0
19.2 0.4 0
19.5 0.4 0
19.8 0.4 0
20.1 0.4 0
20.4 0.4 0
20.7 0.4 0
21 0.4 0
21.3 0.4 0
21.6 0.4 0
21.9 0.4 0
22.2 0.4 0
22.5 0.4 0
22.8 0.4 0
23.1 0.4 0
23.4 0.4 0
23.7 0.4 0
24 0.4 0
24.3 0.4 0
24.6 0.4 0
24.9 0.4 0
25.2 0.4 0
25.5 0.4 0
25.8 0.4 0
26.1 0.4 0
26.4 0.4 0
26.7 0.4 0
27 0.4 0
27.3 0.4 0
27.6 0.4 0
27.9 0.4 0
28.2 0.4 0
28.5 0.4 0
28.8 0.4 0
29.1 0.4 0
29.4 0.4 0
29.7 0.4 0
30 0.4 0
30.3 0.4 0
0 0.5 0
0.3 0.5 0
0.6 0.5 0
0.9 0.5 0
1.2 0.5 0
1.5 0.5 0
1.8 0.5 0
2.1 0.5 0
2.4 0.5 0
2.7 0.5 0
3 0.5 0
3.3 0.5 0
3.6 0.5 0
3.9 0.5 0
4.2 0.5 0
4.5 0.5 0
4.8 0.5 0
5.1 0.5 0
5.4 0.5 0
5.7 0.5 0
6 0.5 0
6.3 0.5 0
6.6 0.5 0
6.9 0.5 0
7.2 0.5 0
7.5 0.5 0
7.8 0.5 0
8.1 0.5 0
8.4 0.5 0
8.7 0.5 0
9 0.5 0
9.3 0.5 0
9.6 0.5 0
9.9 0.5 0
10.2 0.5 0
10.5 0.5 0
10.8 0.5 0
11.1 0.5 0
11.4 0.5 0
11.7 0.5 0
12 0.5 0
12.3 0.5 0
12.6 0.5 0
12.9 0.5 0
13.2 0.5 0
13.5 0.5 0
13.8 0.5 0
14.1 0.5 0
14.4 0.5 0
14.7 0.5 0
15 0.5 0
15.3 0.5 0
15.6 0.5 0
15.9 0.5 0
16.2 0.5 0
16.5 0.5 0
16.8 0.5 0
17.1 0.5 0
17.4 0.5 0
17.7 0.5 0
18 0.5 0
18.3 0.5 0
18.6 0.5 0
18.9 0.5 0
19.2 0.5 0
19.5 0.5 0
19.8 0.5 0
20.1 0.5 0
20.4 0.5 0
20.7 0.5 0
21 0.5 0
21.3 0.5 0
21.6 0.5 0
21.9 0.5 0
22.2 0.5 0
22.5 0.5 0
22.8 0.5 0
23.1 0.5 0
23.4 0.5 0
23.7 0.5 0
24 0.5 0
24.3 0.5 0
24.6 0.5 0
24.9 0.5 0
25.2 0.5 0
25.5 0.5 0
25.8 0.5 0
26.1 0.5 0
26.4 0.5 0
26.7 0.5 0
27 0.5 0
27.3 0.5 0
27.6 0.5 0
27.9 0.5 0
28.2 0.5 0
28.5 0.5 0
28.8 0.5 0
29.1 0.5 0
29.4 0.5 0
29.7 0.5 0
30 0.5 0
30.3 0.5 0
0 0.6 0
0.3 0.6 0
0.6 0.6 0
0.9 0.6 0
1.2 0.6 0
1.5 0.6 0
1.8 0.6 0
2.1 0.6 0
2.4 0.6 0
2.7 0.6 0
3 0.6 0
3.3 0.6 0
3.6 0.6 0
3.9 0.6 0
4.2 0.6 0
4.5 0.6 0
4.8 0.6 0
5.1 0.6 0
5.4 0.6 0
5.7 0.6 0
6 0.6 0
6.3 0.6 0
6.6 0.6 0
6.9 0.6 0
7.2 0.6 0
7.5 0.6 0
7.8 0.6 0
8.1 0.6 0
8.4 0.6 0
8.7 0.6 0
9 0.6 0
9.3 0.6 0
9.6 0.6 0
9.9 0.6 0
10.2 0.6 0
10.5 0.6 0
10.8 0.6 0
11.1 0.6 0
11.4 0.6 0
11.7 0.6 0
12 0.6 0
12.3 0.6 0
12.6 0.6 0
12.9 0.6 0
13.2 0.6 0
13.5 0.6 0
13.8 0.6 0
14.1 0.6 0
14.4 0.6 0
14.7 0.6 0
15 0.6 0
15.3 0.6 0
15.6 0.6 0
15.9 0.6 0
16.2 0.6 0
16.5 0.6 0
16.8 0.6 0
17.1 0.6 0
17.4 0.6 0
17.7 0.6 0
18 0.6 0
18.3 0.6 0
18.6 0.6 0
18.9 0.6 0
19.2 0.6 0
19.5 0.6 0
19.8 0.6 0
20.1 0.6 0
20.4 0.6 0
20.7 0.6 0
21 0.6 0
21.3 0.6 0
21.6 0.6 0
21.9 0.6 0
22.2 0.6 0
22.5 0.6 0
22.8 0.6 0
23.1 0.6 0
23.4 0.6 0
23.7 0.6 0
24 0.6 0
24.3 0.6 0
24.6 0.6 0
24.9 0.6 0
25.2 0.6 0
25.5 0.6 0
25.8 0.6 0
26.1 0.6 0
26.4 0.6 0
26.7 0.6 0
27 0.6 0
27.3 0.6 0
27.6 0.6 0
27.9 0.6 0
28.2 0.6 0
28.5 0.6 0
28.8 0.6 0
29.1 0.6 0
29.4 0.6 0
29.7 0.6 0
30 0.6 0
30.3 0.6 0
0 0.7 0
0.3 0.7 0
0.6 0.7 0
0.9 0.7 0
1.2 0.7 0
1.5 0.7 0
1.8 0.7 0
2.1 0.7 0
2.4 0.7 0
2.7 0.7 0
3 0.7 0
3.3 0.7 0
3.6 0.7 0
3.9 0.7 0
4.2 0.7 0
4.5 0.7 0
4.8 0.7 0
5.1 0.7 0
5.4 0.7 0
5.7 0.7 0
6 0.7 0
6.3 0.7 0
6.6 0.7 0
6.9 0.7 0
7.2 0.7 0
7.5 0.7 0
7.8 0.7 0
8.1 0.7 0
8.4 0.7 0
8.7 0.7 0
9 0.7 0
9.3 0.7 0
9.6 0.7 0
9.9 0.7 0
10.2 0.7 0
10.5 0.7 0
10.8 0.7 0
11.1 0.7 0
11.4 0.7 0
11.7 0.7 0
12 0.7 0
12.3 0.7 0
12.6 0.7 0
12.9 0.7 0
13.2 0.7 0
13.5 0.7 0
13.8 0.7 0
14.1 0.7 0
14.4 0.7 0
14.7 0.7 0
15 0.7 0
15.3 0.7 0
15.6 0.7 0
15.9 0.7 0
16.2 0.7 0
16.5 0.7 0
16.8 0.7 0
17.1 0.7 0
17.4 0.7 0
17.7 0.7 0
18 0.7 0
18.3 0.7 0
18.6 0.7 0
18.9 0.7 0
19.2 0.7 0
19.5 0.7 0
19.8 0.7 0
20.1 0.7 0
20.4 0.7 0
20.7 0.7 0
21 0.7 0
21.3 0.7 0
21.6 0.7 0
21.9 0.7 0
22.2 0.7 0
22.5 0.7 0
22.8 0.7 0
23.1 0.7 0
23.4 0.7 0
23.7 0.7 0
24 0.7 0
24.3 0.7 0
24.6 0.7 0
24.9 0.7 0
25.2 0.7 0
25.5 0.7 0
25.8 0.7 0
26.1 0.7 0
26.4 0.7 0
26.7 0.7 0
27 0.7 0
27.3 0.7 0
27.6 0.7 0
27.9 0.7 0
28.2 0.7 0
28.5 0.7 0
28.8 0.7 0
29.1 0.7 0
29.4 0.7 0
29.7 0.7 0
30 0.7 0
30.3 0.7 0
0 0.8 0
0.3 0.8 0
0.6 0.8 0
0.9 0.8 0
1.2 0.8 0
1.5 0.8 0
1.8 0.8 0
2.1 0.8 0
2.4 0.8 0
2.7 0.8 0
3 0.8 0
3.3 0.8 0
3.6 0.8 0
3.9 0.8 0
4.2 0.8 0
4.5 0.8 0
4.8 0.8 0
5.1 0.8 0
5.4 0.8 0
5.7 0.8 0
6 0.8 0
6.3 0.8 0
6.6 0.8 0
6.9 0.8 0
7.2 0.8 0
7.5 0.8 0
7.8 0.8 0
8.1 0.8 0
8.4 0.8 0
8.7 0.8 0
9 0.8 0
9.3 0.8 0
9.6 0.8 0
9.9 0.8 0
10.2 0.8 0
10.5 0.8 0
10.8 0.8 0
11.1 0.8 0
11.4 0.8 0
11.7 0.8 0
12 0.8 0
12.3 0.8 0
12.6 0.8 0
12.9 0.8 0
13.2 0.8 0
13.5 0.8 0
13.8 0.8 0
14.1 0.8 0
14.4 0.8 0
14.7 0.8 0
15 0.8 0
15.3 0.8 0
15.6 0.8 0
15.9 0.8 0
16.2 0.8 0
16.5 0.8 0
16.8 0.8 0
17.1 0.8 0
17.4 0.8 0
17.7 0.8 0
18 0.8 0
18.3 0.8 0
18.6 0.8 0
18.9 0.8 0
19.2 0.8 0
19.5 0.8 0
19.8 0.8 0
20.1 0.8 0
20.4 0.8 0
20.7 0.8 0
21 0.8 0
21.3 0.8 0
21.6 0.8 0
21.9 0.8 0
22.2 0.8 0
22.5 0.8 0
22.8 0.8 0
23.1 0.8 0
23.4 0.8 0
23.7 0.8 0
24 0.8 0
24.3 0.8 0
24.6 0.8 0
24.9 0.8 0
25.2 0.8 0
25.5 0.8 0
25.8 0.8 0
26.1 0.8 0
26.4 0.8 0
26.7 0.8 0
27 0.8 0
27.3 0.8 0
27.6 0.8 0
27.9 0.8 0
28.2 0.8 0
28.5 0.8 0
28.8 0.8 0
29.1 0.8 0
29.4 0.8 0
29.7 0.8 0
30 0.8 0
30.3 0.8 0
0 0.9 0
0.3 0.9 0
0.6 0.9 0
0.9 0.9 0
1.2 0.9 0
1.5 0.9 0
1.8 0.9 0
2.1 0.9 0
2.4 0.9 0
2.7 0.9 0
3 0.9 0
3.3 0.9 0
3.6 0.9 0
3.9 0.9 0
4.2 0.9 0
4.5 0.9 0
4.8 0.9 0
5.1 0.9 0
5.4 0.9 0
5.7 0.9 0
6 0.9 0
6.3 0.9 0
6.6 0.9 0
6.9 0.9 0
7.2 0.9 0
7.5 0.9 0
7.8 0.9 0
8.1 0.9 0
8.4 0.9 0
8.7 0.9 0
9 0.9 0
9.3 0.9 0
9.6 0.9 0
9.9 0.9 0
10.2 0.9 0
10.5 0.9 0
10.8 0.9 0
11.1 0.9 0
11.4 0.9 0
11.7 0.9 0
12 0.9 0
12.3 0.9 0
12.6 0.9 0
12.9 0.9 0
13.2 0.9 0
13.5 0.9 0
13.8 0.9 0
14.1 0.9 0
14.4 0.9 0
14.7 0.9 0
15 0.9 0
15.3 0.9 0
15.6 0.9 0
15.9 0.9 0
16.2 0.9 0
16.5 0.9 0
16.8 0.9 0
17.1 0.9 0
17.4 0.9 0
17.7 0.9 0
18 0.9 0
18.3 0.9 0
18.6 0.9 0
18.9 0.9 0
19.2 0.9 0
19.5 0.9 0
19.8 0.9 0
20.1 0.9 0
20.4 0.9 0
20.7 0.9 0
21 0.9 0
21.3 0.9 0
21.6 0.9 0
21.9 0.9 0
22.2 0.9 0
22.5 0.9 0
22.8 0.9 0
23.1 0.9 0
23.4 0.9 0
23.7 0.9 0
24 0.9 0
24.3 0.9 0
24.6 0.9 0
24.9 0.9 0
25.2 0.9 0
25.5 0.9 0
25.8 0.9 0
26.1 0.9 0
26.4 0.9 0
26.7 0.9 0
27 0.9 0
27.3 0.9 0
27.6 0.9 0
27.9 0.9 0
28.2 0.9 0
28.5 0.9 0
28.8 0.9 0
29.1 0.9 0
29.4 0.9 0
29.7 0.9 0
30 0.9 0
30.3 0.9 0
0 1 0
0.3 1 0
0.6 1 0
0.9 1 0
1.2 1 0
1.5 1 0
1.8 1 0
2.1 1 0
2.4 1 0
2.7 1 0
3 1 0
3.3 1 0
3.6 1 0
3.9 1 0
4.2 1 0
4.5 1 0
4.8 1 0
5.1 1 0
5.4 1 0
5.7 1 0
6 1 0
6.3 1 0
6.6 1 0
6.9 1 0
7.2 1 0
7.5 1 0
7.8 1 0
8.1 1 0
8.4 1 0
8.7 1 0
9 1 0
9.3 1 0
9.6 1 0
9.9 1 0
10.2 1 0
10.5 1 0
10.8 1 0
11.1 1 0
11.4 1 0
11.7 1 0
12 1 0
12.3 1 0
12.6 1 0
12.9 1 0
13.2 1 0
13.5 1 0
13.8 1 0
14.1 1 0
14.4 1 0
14.7 1 0
15 1 0
15.3 1 0
15.6 1 0
15.9 1 0
16.2 1 0
16.5 1 0
16.8 1 0
17.1 1 0
17.4 1 0
17.7 1 0
18 1 0
18.3 1 0
18.6 1 0
18.9 1 0
19.2 1 0
19.5 1 0
19.8 1 0
20.1 1 0
20.4 1 0
20.7 1 0
21 1 0
21.3 1 0
21.6 1 0
21.9 1 0
22.2 1 0
22.5 1 0
22.8 1 0
23.1 1 0
23.4 1 0
23.7 1 0
24 1 0
24.3 1 0
24.6 1 0
24.9 1 0
25.2 1 0
25.5 1 0
25.8 1 0
26.1 1 0
26.4 1 0
26.7 1 0
27 1 0
27.3 1 0
27.6 1 0
27.9 1 0
28.2 1 0
28.5 1 0
28.8 1 0
29.1 1 0
29.4 1 0
29.7 1 0
30 1 0
30.3 1 0
0 1.1 0
0.3 1.1 0
0.6 1.1 0
0.9 1.1 0
1.2 1.1 0
1.5 1.1 0
1.8 1.1 0
2.1 1.1 0
2.4 1.1 0
2.7 1.1 0
3 1.1 0
3.3 1.1 0
3.6 1.1 0
3.9 1.1 0
4.2 1.1 0
4.5 1.1 0
4.8 1.1 0
5.1 1.1 0
5.4 1.1 0
5.7 1.1 0
6 1.1 0
6.3 1.1 0
6.6 1.1 0
6.9 1.1 0
7.2 1.1 0
7.5 1.1 0
7.8 1.1 0
8.1 1.1 0
8.4 1.1 0
8.7 1.1 0
9 1.1 0
9.3 1.1 0
9.6 1.1 0
9.9 1.1 0
10.2 1.1 0
10.5 1.1 0
10.8 1.1 0
11.1 1.1 0
11.4 1.1 0
11.7 1.1 0
12 1.1 0
12.3 1.1 0
12.6 1.1 0
12.9 1.1 0
13.2 1.1 0
13.5 1.1 0
13.8 1.1 0
14.1 1.1 0
14.4 1.1 0
14.7 1.1 0
15 1.1 0
15.3 1.1 0
15.6 1.1 0
15.9 1.1 0
16.2 1.1 0
16.5 1.1 0
16.8 1.1 0
17.1 1.1 0
17.4 1.1 0
17.7 1.1 0
18 1.1 0
18.3 1.1 0
18.6 1.1 0
18.9 1.1 0
19.2 1.1 0
19.5 1.1 0
19.8 1.1 0
20.1 1.1 0
20.4 1.1 0
20.7 1.1 0
21 1.1 0
21.3 1.1 0
21.6 1.1 0
21.9 1.1 0
22.2 1.1 0
22.5 1.1 0
22.8 1.1 0
23.1 1.1 0
23.4 1.1 0
23.7 1.1 0
24 1.1 0
24.3 1.1 0
24.6 1.1 0
24.9 1.1 0
25.2 1.1 0
25.5 1.1 0
25.8 1.1 0
26.1 1.1 0
26.4 1.1 0
26.7 1.1 0
27 1.1 0
27.3 1.1 0
27.6 1.1 0
27.9 1.1 0
28.2 1.1 0
28.5 1.1 0
28.8 1.1 0
29.1 1.1 0
29.4 1.1 0
29.7 1.1 0
30 1.1 0
30.3 1.1 0
0 1.2 0
0.3 1.2 0
0.6 1.2 0
0.9 1.2 0
1.2 1.2 0
1.5 1.2 0
1.8 1.2 0
2.1 1.2 0
2.4 1.2 0
2.7 1.2 0
3 1.2 0
3.3 1.2 0
3.6 1.2 0
3.9 1.2 0
4.2 1.2 0
4.5 1.2 0
4.8 1.2 0
5.1 1.2 0
5.4 1.2 0
5.7 1.2 0
6 1.2 0
6.3 1.2 0
6.6 1.2 0
6.9 1.2 0
7.2 1.2 0
7.5 1.2 0
7.8 1.2 0
8.1 1.2 0
8.4 1.2 0
8.7 1.2 0
9 1.2 0
9.3 1.2 0
9.6 1.2 0
9.9 1.2 0
10.2 1.2 0
10.5 1.2 0
10.8 1.2 0
11.1 1.2 0
11.4 1.2 0
11.7 1.2 0
12 1.2 0
12.3 1.2 0
12.6 1.2 0
12.9 1.2 0
13.2 1.2 0
13.5 1.2 0
13.8 1.2 0
14.1 1.2 0
14.4 1.2 0
14.7 1.2 0
15 1.2 0
15.3 1.2 0
15.6 1.2 0
15.9 1.2 0
16.2 1.2 0
16.5 1.2 0
16.8 1.2 0
17.1 1.2 0
17.4 1.2 0
17.7 1.2 0
18 1.2 0
18.3 1.2 0
18.6 1.2 0
18.9 1.2 0
19.2 1.2 0
19.5 1.2 0
19.8 1.2 0
20.1 1.2 0
20.4 1.2 0
20.7 1.2 0
21 1.2 0
21.3 1.2 0
21.6 1.2 0
21.9 1.2 0
22.2 1.2 0
22.5 1.2 0
22.8 1.2 0
23.1 1.2 0
23.4 1.2 0
23.7 1.2 0
24 1.2 0
24.3 1.2 0
24.6 1.2 0
24.9 1.2 0
25.2 1.2 0
25.5 1.2 0
25.8 1.2 0
26.1 1.2 0
26.4 1.2 0
26.7 1.2 0
27 1.2 0
27.3 1.2 0
27.6 1.2 0
27.9 1.2 0
28.2 1.2 0
28.5 1.2 0
28.8 1.2 0
29.1 1.2 0
29.4 1.2 0
29.7 1.2 0
30 1.2 0
30.3 1.2 0

POINT_DATA 1326

SCALARS p double
LOOKUP_TABLE default
1.16072
1.16072
1.09588
1.05164
1.01182
0.975241
0.942191
0.912663
0.886306
0.862597
0.840996
0.821032
0.802339
0.78464
0.767733
0.751474
0.735755
0.7205
0.705647
0.691152
0.676978
0.663093
0.649473
0.636094
0.622938
0.609988
0.597228
0.584646
0.572229
0.559964
0.547843
0.535857
0.523996
0.512253
0.50062
0.489091
0.477659
0.46632
0.455066
0.443895
0.4328
0.421777
0.410823
0.399933
0.389104
0.378332
0.367615
0.35695
0.346332
0.335761
0.325234
0.314747
0.304299
0.293888
0.283512
0.273169
0.262857
0.252574
0.24232
0.232091
0.221888
0.211709
0.201552
0.191416
0.181301
0.171204
0.161126
0.151064
0.141019
0.130989
0.120973
0.110972
0.100983
0.0910064
0.0810417
0.0710883
0.0611455
0.0512128
0.04129
0.0313765
0.021472
0.0115762
0.00168879
-0.00819062
-0.0180623
-0.0279265
-0.0377835
-0.0476337
-0.0574774
-0.0673149
-0.0771465
-0.0869726
-0.0967935
-0.10661
-0.116422
-0.126229
-0.136034
-0.145835
-0.155633
-0.165428
-0.175222
0.175222
1.16072
1.16072
1.09588
1.05164
1.01182
0.975241
0.942191
0.912663
0.886306
0.862597
0.840996
0.821032
0.802339
0.78464
0.767733
0.751474
0.735755
0.7205
0.705647
0.691152
0.676978
0.663093
0.649473
0.636094
0.622938
0.609988
0.597228
0.584646
0.572229
0.559964
0.547843
0.535857
0.523996
0.512253
0.50062
0.489091
0.477659
0.46632
0.455066
0.443895
0.4328
0.421777
0.410823
0.399933
0.389104
0.378332
0.367615
0.35695
0.346332
0.335761
0.325234
0.314747
0.304299
0.293888
0.283512
0.273169
0.262857
0.252574
0.24232
0.232091
0.221888
0.211709
0.201552
0.191416
0.181301
0.171204
0.161126
0.151064
0.141019
0.130989
0.120973
0.110972
0.100983
0.0910064
0.0810417
0.0710883
0.0611455
0.0512128
0.04129
0.0313765
0.021472
0.0115762
0.00168879
-0.00819062
-0.0180623
-0.0279265
-0.0377835
-0.0476337
-0.0574774
-0.0673149
-0.0771465
-0.0869726
-0.0967935
-0.10661
-0.116422
-0.126229
-0.136034
-0.145835
-0.155633
-0.165428
-0.175222
0.175222
1.13977
1.13977
1.09389
1.05187
1.01252
0.976038
0.942934
0.913294
0.886813
0.862993
0.841299
0.821266
0.802521
0.784785
0.767851
0.751571
0.735838
0.720571
0.70571
0.691208
0.677027
0.663138
0.649513
0.63613
0.622972
0.610019
0.597257
0.584672
0.572253
0.559987
0.547864
0.535876
0.524014
0.512269
0.500635
0.489105
0.477673
0.466332
0.455078
0.443906
0.43281
0.421787
0.410832
0.399941
0.389112
0.37834
0.367623
0.356956
0.346339
0.335767
0.325239
0.314752
0.304304
0.293893
0.283517
0.273173
0.262861
0.252578
0.242323
0.232095
0.221892
0.211712
0.201555
0.191419
0.181303
0.171207
0.161128
0.151066
0.141021
0.130991
0.120975
0.110973
0.100984
0.091008
0.0810432
0.0710897
0.0611468
0.0512141
0.0412911
0.0313776
0.021473
0.0115771
0.00168961
-0.00818987
-0.0180616
-0.0279259
-0.037783
-0.0476332
-0.057477
-0.0673145
-0.0771462
-0.0869723
-0.0967933
-0.10661
-0.116421
-0.126229
-0.136034
-0.145835
-0.155632
-0.165428
-0.175221
0.175221
1.1248
1.1248
1.09101
1.0521
1.01363
0.977363
0.944195
0.914372
0.887675
0.863652
0.841792
0.821631
0.802793
0.78499
0.768009
0.751696
0.735939
0.720655
0.705781
0.691269
0.67708
0.663185
0.649554
0.636167
0.623005
0.610049
0.597284
0.584697
0.572275
0.560007
0.547883
0.535894
0.52403
0.512284
0.500649
0.489118
0.477685
0.466343
0.455089
0.443915
0.432819
0.421795
0.41084
0.399949
0.389119
0.378346
0.367628
0.356962
0.346344
0.335772
0.325244
0.314757
0.304308
0.293897
0.28352
0.273176
0.262864
0.252581
0.242326
0.232098
0.221894
0.211714
0.201557
0.191421
0.181305
0.171208
0.16113
0.151068
0.141023
0.130992
0.120977
0.110975
0.100986
0.0910092
0.0810444
0.0710907
0.0611478
0.051215
0.041292
0.0313784
0.0214738
0.0115778
0.00169024
-0.0081893
-0.0180611
-0.0279254
-0.0377826
-0.0476329
-0.0574767
-0.0673142
-0.0771459
-0.0869721
-0.0967932
-0.106609
-0.116421
-0.126229
-0.136034
-0.145834
-0.155632
-0.165428
-0.175219
0.175219
1.11523
1.11523
1.08852
1.05221
1.01458
0.978558
0.945372
0.915408
0.888528
0.864324
0.842309
0.822025
0.803095
0.785224
0.768194
0.751846
0.736062
0.720758
0.705869
0.691344
0.677147
0.663243
0.649606
0.636214
0.623046
0.610086
0.597318
0.584728
0.572303
0.560032
0.547906
0.535915
0.524049
0.512302
0.500666
0.489133
0.477699
0.466356
0.455101
0.443927
0.432829
0.421805
0.410849
0.399957
0.389127
0.378354
0.367635
0.356968
0.34635
0.335778
0.325249
0.314762
0.304313
0.293901
0.283524
0.27318
0.262868
0.252585
0.242329
0.232101
0.221897
0.211717
0.20156
0.191424
0.181308
0.171211
0.161132
0.15107
0.141024
0.130994
0.120978
0.110976
0.100987
0.0910106
0.0810457
0.071092
0.061149
0.0512161
0.0412931
0.0313794
0.0214747
0.0115787
0.00169109
-0.0081885
-0.0180603
-0.0279247
-0.0377819
-0.0476323
-0.0574761
-0.0673137
-0.0771455
-0.0869717
-0.0967928
-0.106609
-0.116421
-0.126229
-0.136033
-0.145834
-0.155632
-0.165426
-0.175215
0.175215
1.10991
1.10991
1.08689
1.05222
1.01518
0.979325
0.946141
0.916097
0.889106
0.864789
0.842673
0.822309
0.803318
0.785401
0.768337
0.751963
0.736161
0.720843
0.705942
0.691409
0.677204
0.663294
0.649651
0.636255
0.623083
0.610119
0.597348
0.584755
0.572328
0.560056
0.547928
0.535935
0.524068
0.512319
0.500681
0.489148
0.477712
0.466369
0.455112
0.443937
0.432839
0.421814
0.410857
0.399965
0.389134
0.378361
0.367642
0.356975
0.346356
0.335784
0.325254
0.314767
0.304318
0.293906
0.283528
0.273184
0.262871
0.252588
0.242333
0.232104
0.2219
0.21172
0.201562
0.191426
0.18131
0.171213
0.161134
0.151072
0.141026
0.130996
0.12098
0.110978
0.100989
0.0910119
0.081047
0.0710932
0.0611501
0.0512173
0.0412942
0.0313804
0.0214757
0.0115797
0.00169198
-0.00818765
-0.0180595
-0.0279239
-0.0377812
-0.0476316
-0.0574755
-0.0673131
-0.0771449
-0.0869712
-0.0967924
-0.106609
-0.116421
-0.126229
-0.136033
-0.145834
-0.155631
-0.165425
-0.17521
0.17521
1.10821
1.10821
1.08635
1.05224
1.01539
0.979599
0.946414
0.916343
0.889312
0.864956
0.842806
0.822414
0.803401
0.785468
0.768392
0.752009
0.7362
0.720876
0.705971
0.691435
0.677227
0.663314
0.64967
0.636272
0.623099
0.610134
0.597361
0.584767
0.572339
0.560066
0.547937
0.535943
0.524075
0.512326
0.500688
0.489154
0.477718
0.466374
0.455117
0.443942
0.432844
0.421818
0.410861
0.399969
0.389138
0.378364
0.367645
0.356978
0.346359
0.335786
0.325257
0.314769
0.30432
0.293908
0.28353
0.273186
0.262873
0.252589
0.242334
0.232105
0.221901
0.211721
0.201563
0.191427
0.181311
0.171214
0.161135
0.151073
0.141027
0.130997
0.120981
0.110978
0.100989
0.0910125
0.0810476
0.0710938
0.0611507
0.0512178
0.0412946
0.0313809
0.0214761
0.0115801
0.00169238
-0.00818727
-0.0180592
-0.0279236
-0.0377809
-0.0476313
-0.0574752
-0.0673128
-0.0771446
-0.086971
-0.0967921
-0.106609
-0.116421
-0.126228
-0.136033
-0.145834
-0.155631
-0.165424
-0.175207
0.175207
1.10991
1.10991
1.08689
1.05222
1.01518
0.979325
0.94614
0.916097
0.889106
0.864788
0.842673
0.822309
0.803318
0.785401
0.768337
0.751963
0.736161
0.720843
0.705942
0.691409
0.677204
0.663293
0.649651
0.636255
0.623083
0.610119
0.597348
0.584755
0.572328
0.560056
0.547928
0.535935
0.524068
0.512319
0.500681
0.489148
0.477712
0.466369
0.455112
0.443937
0.432839
0.421814
0.410857
0.399965
0.389134
0.378361
0.367642
0.356975
0.346356
0.335784
0.325254
0.314767
0.304318
0.293906
0.283528
0.273184
0.262871
0.252588
0.242333
0.232104
0.2219
0.21172
0.201562
0.191426
0.18131
0.171213
0.161134
0.151072
0.141026
0.130996
0.12098
0.110978
0.100989
0.0910119
0.081047
0.0710932
0.0611501
0.0512173
0.0412942
0.0313804
0.0214757
0.0115797
0.00169198
-0.00818765
-0.0180595
-0.0279239
-0.0377812
-0.0476316
-0.0574755
-0.0673131
-0.0771449
-0.0869712
-0.0967924
-0.106609
-0.116421
-0.126229
-0.136033
-0.145834
-0.155631
-0.165425
-0.17521
0.17521
1.11523
1.11523
1.08852
1.05221
1.01459
0.978558
0.945371
0.915408
0.888529
0.864324
0.842309
0.822025
0.803095
0.785224
0.768194
0.751846
0.736062
0.720758
0.705868
0.691345
0.677147
0.663243
0.649606
0.636214
0.623046
0.610086
0.597318
0.584728
0.572303
0.560033
0.547906
0.535915
0.524049
0.512302
0.500666
0.489133
0.477699
0.466356
0.455101
0.443926
0.432829
0.421805
0.410849
0.399957
0.389127
0.378354
0.367635
0.356969
0.34635
0.335778
0.325249
0.314762
0.304313
0.293901
0.283524
0.27318
0.262868
0.252585
0.242329
0.232101
0.221897
0.211717
0.20156
0.191424
0.181308
0.171211
0.161132
0.15107
0.141024
0.130994
0.120978
0.110976
0.100987
0.0910106
0.0810457
0.071092
0.061149
0.0512161
0.0412931
0.0313794
0.0214747
0.0115787
0.00169109
-0.0081885
-0.0180603
-0.0279247
-0.0377819
-0.0476323
-0.0574761
-0.0673137
-0.0771455
-0.0869717
-0.0967928
-0.106609
-0.116421
-0.126229
-0.136033
-0.145834
-0.155632
-0.165426
-0.175215
0.175215
1.1248
1.1248
1.09101
1.0521
1.01363
0.977363
0.944194
0.914372
0.887675
0.863652
0.841791
0.821631
0.802793
0.78499
0.768009
0.751696
0.735939
0.720655
0.705781
0.691269
0.677081
0.663184
0.649554
0.636168
0.623005
0.610049
0.597284
0.584697
0.572275
0.560007
0.547883
0.535894
0.52403
0.512284
0.500649
0.489118
0.477685
0.466343
0.455089
0.443915
0.432819
0.421795
0.41084
0.399949
0.389119
0.378346
0.367628
0.356962
0.346344
0.335772
0.325244
0.314757
0.304308
0.293897
0.28352
0.273176
0.262864
0.252581
0.242326
0.232098
0.221894
0.211714
0.201557
0.191421
0.181305
0.171208
0.16113
0.151068
0.141023
0.130992
0.120977
0.110975
0.100986
0.0910092
0.0810444
0.0710907
0.0611478
0.051215
0.041292
0.0313784
0.0214738
0.0115778
0.00169025
-0.00818929
-0.0180611
-0.0279254
-0.0377826
-0.0476329
-0.0574767
-0.0673142
-0.0771459
-0.0869721
-0.0967932
-0.106609
-0.116421
-0.126229
-0.136034
-0.145834
-0.155632
-0.165428
-0.175219
0.175219
1.13978
1.13978
1.09389
1.05187
1.01252
0.976039
0.942933
0.913294
0.886814
0.862993
0.841299
0.821266
0.802521
0.784785
0.767851
0.751571
0.735838
0.720571
0.70571
0.691208
0.677027
0.663138
0.649513
0.636131
0.622972
0.610019
0.597257
0.584672
0.572253
0.559987
0.547864
0.535876
0.524014
0.512269
0.500636
0.489105
0.477673
0.466332
0.455078
0.443906
0.43281
0.421787
0.410832
0.399941
0.389112
0.37834
0.367623
0.356956
0.346339
0.335767
0.325239
0.314752
0.304304
0.293893
0.283517
0.273173
0.262861
0.252578
0.242323
0.232095
0.221892
0.211712
0.201555
0.191419
0.181303
0.171207
0.161128
0.151066
0.141021
0.130991
0.120975
0.110973
0.100984
0.091008
0.0810432
0.0710897
0.0611468
0.0512141
0.0412911
0.0313776
0.021473
0.0115771
0.00168961
-0.00818987
-0.0180616
-0.0279259
-0.037783
-0.0476332
-0.057477
-0.0673145
-0.0771462
-0.0869723
-0.0967934
-0.10661
-0.116421
-0.126229
-0.136034
-0.145835
-0.155632
-0.165428
-0.175221
0.175221
1.16072
1.16072
1.09588
1.05164
1.01182
0.975242
0.94219
0.912662
0.886307
0.862597
0.840995
0.821032
0.802339
0.78464
0.767733
0.751474
0.735755
0.720499
0.705647
0.691153
0.676978
0.663093
0.649473
0.636094
0.622938
0.609988
0.597229
0.584646
0.572228
0.559964
0.547844
0.535857
0.523996
0.512253
0.50062
0.489091
0.477659
0.46632
0.455066
0.443895
0.4328
0.421777
0.410823
0.399933
0.389104
0.378332
0.367615
0.35695
0.346332
0.335761
0.325234
0.314747
0.304299
0.293888
0.283512
0.273169
0.262857
0.252574
0.24232
0.232091
0.221888
0.211709
0.201552
0.191416
0.181301
0.171204
0.161126
0.151064
0.141019
0.130989
0.120973
0.110972
0.100983
0.0910064
0.0810417
0.0710883
0.0611455
0.0512128
0.04129
0.0313765
0.021472
0.0115762
0.00168879
-0.00819062
-0.0180623
-0.0279265
-0.0377835
-0.0476337
-0.0574774
-0.0673148
-0.0771465
-0.0869726
-0.0967936
-0.10661
-0.116422
-0.126229
-0.136034
-0.145835
-0.155633
-0.165428
-0.175222
0.175222
1.16072
1.16072
1.09588
1.05164
1.01182
0.975242
0.94219
0.912662
0.886307
0.862597
0.840995
0.821032
0.802339
0.78464
0.767733
0.751474
0.735755
0.720499
0.705647
0.691153
0.676978
0.663093
0.649473
0.636094
0.622938
0.609988
0.597229
0.584646
0.572228
0.559964
0.547844
0.535857
0.523996
0.512253
0.50062
0.489091
0.477659
0.46632
0.455066
0.443895
0.4328
0.421777
0.410823
0.399933
0.389104
0.378332
0.367615
0.35695
0.346332
0.335761
0.325234
0.314747
0.304299
0.293888
0.283512
0.273169
0.262857
0.252574
0.24232
0.232091
0.221888
0.211709
0.201552
0.191416
0.181301
0.171204
0.161126
0.151064
0.141019
0.130989
0.120973
0.110972
0.100983
0.0910064
0.0810417
0.0710883
0.0611455
0.0512128
0.04129
0.0313765
0.021472
0.0115762
0.00168879
-0.00819062
-0.0180623
-0.0279265
-0.0377835
-0.0476337
-0.0574774
-0.0673148
-0.0771465
-0.0869726
-0.0967936
-0.10661
-0.116422
-0.126229
-0.136034
-0.145835
-0.155633
-0.165428
-0.175222
0.175222
