# vtk DataFile Version 2.0
FlowField
ASCII
DATASET STRUCTURED_GRID
DIMENSIONS 102 1 12 
POINTS 1224 double
0 0 0
0.4 0 0
0.8 0 0
1.2 0 0
1.6 0 0
2 0 0
2.4 0 0
2.8 0 0
3.2 0 0
3.6 0 0
4 0 0
4.4 0 0
4.8 0 0
5.2 0 0
5.6 0 0
6 0 0
6.4 0 0
6.8 0 0
7.2 0 0
7.6 0 0
8 0 0
8.4 0 0
8.8 0 0
9.2 0 0
9.6 0 0
10 0 0
10.4 0 0
10.8 0 0
11.2 0 0
11.6 0 0
12 0 0
12.4 0 0
12.8 0 0
13.2 0 0
13.6 0 0
14 0 0
14.4 0 0
14.8 0 0
15.2 0 0
15.6 0 0
16 0 0
16.4 0 0
16.8 0 0
17.2 0 0
17.6 0 0
18 0 0
18.4 0 0
18.8 0 0
19.2 0 0
19.6 0 0
20 0 0
20.4 0 0
20.8 0 0
21.2 0 0
21.6 0 0
22 0 0
22.4 0 0
22.8 0 0
23.2 0 0
23.6 0 0
24 0 0
24.4 0 0
24.8 0 0
25.2 0 0
25.6 0 0
26 0 0
26.4 0 0
26.8 0 0
27.2 0 0
27.6 0 0
28 0 0
28.4 0 0
28.8 0 0
29.2 0 0
29.6 0 0
30 0 0
30.4 0 0
30.8 0 0
31.2 0 0
31.6 0 0
32 0 0
32.4 0 0
32.8 0 0
33.2 0 0
33.6 0 0
34 0 0
34.4 0 0
34.8 0 0
35.2 0 0
35.6 0 0
36 0 0
36.4 0 0
36.8 0 0
37.2 0 0
37.6 0 0
38 0 0
38.4 0 0
38.8 0 0
39.2 0 0
39.6 0 0
40 0 0
40.4 0 0
0 0.1 0
0.4 0.1 0
0.8 0.1 0
1.2 0.1 0
1.6 0.1 0
2 0.1 0
2.4 0.1 0
2.8 0.1 0
3.2 0.1 0
3.6 0.1 0
4 0.1 0
4.4 0.1 0
4.8 0.1 0
5.2 0.1 0
5.6 0.1 0
6 0.1 0
6.4 0.1 0
6.8 0.1 0
7.2 0.1 0
7.6 0.1 0
8 0.1 0
8.4 0.1 0
8.8 0.1 0
9.2 0.1 0
9.6 0.1 0
10 0.1 0
10.4 0.1 0
10.8 0.1 0
11.2 0.1 0
11.6 0.1 0
12 0.1 0
12.4 0.1 0
12.8 0.1 0
13.2 0.1 0
13.6 0.1 0
14 0.1 0
14.4 0.1 0
14.8 0.1 0
15.2 0.1 0
15.6 0.1 0
16 0.1 0
16.4 0.1 0
16.8 0.1 0
17.2 0.1 0
17.6 0.1 0
18 0.1 0
18.4 0.1 0
18.8 0.1 0
19.2 0.1 0
19.6 0.1 0
20 0.1 0
20.4 0.1 0
20.8 0.1 0
21.2 0.1 0
21.6 0.1 0
22 0.1 0
22.4 0.1 0
22.8 0.1 0
23.2 0.1 0
23.6 0.1 0
24 0.1 0
24.4 0.1 0
24.8 0.1 0
25.2 0.1 0
25.6 0.1 0
26 0.1 0
26.4 0.1 0
26.8 0.1 0
27.2 0.1 0
27.6 0.1 0
28 0.1 0
28.4 0.1 0
28.8 0.1 0
29.2 0.1 0
29.6 0.1 0
30 0.1 0
30.4 0.1 0
30.8 0.1 0
31.2 0.1 0
31.6 0.1 0
32 0.1 0
32.4 0.1 0
32.8 0.1 0
33.2 0.1 0
33.6 0.1 0
34 0.1 0
34.4 0.1 0
34.8 0.1 0
35.2 0.1 0
35.6 0.1 0
36 0.1 0
36.4 0.1 0
36.8 0.1 0
37.2 0.1 0
37.6 0.1 0
38 0.1 0
38.4 0.1 0
38.8 0.1 0
39.2 0.1 0
39.6 0.1 0
40 0.1 0
40.4 0.1 0
0 0.2 0
0.4 0.2 0
0.8 0.2 0
1.2 0.2 0
1.6 0.2 0
2 0.2 0
2.4 0.2 0
2.8 0.2 0
3.2 0.2 0
3.6 0.2 0
4 0.2 0
4.4 0.2 0
4.8 0.2 0
5.2 0.2 0
5.6 0.2 0
6 0.2 0
6.4 0.2 0
6.8 0.2 0
7.2 0.2 0
7.6 0.2 0
8 0.2 0
8.4 0.2 0
8.8 0.2 0
9.2 0.2 0
9.6 0.2 0
10 0.2 0
10.4 0.2 0
10.8 0.2 0
11.2 0.2 0
11.6 0.2 0
12 0.2 0
12.4 0.2 0
12.8 0.2 0
13.2 0.2 0
13.6 0.2 0
14 0.2 0
14.4 0.2 0
14.8 0.2 0
15.2 0.2 0
15.6 0.2 0
16 0.2 0
16.4 0.2 0
16.8 0.2 0
17.2 0.2 0
17.6 0.2 0
18 0.2 0
18.4 0.2 0
18.8 0.2 0
19.2 0.2 0
19.6 0.2 0
20 0.2 0
20.4 0.2 0
20.8 0.2 0
21.2 0.2 0
21.6 0.2 0
22 0.2 0
22.4 0.2 0
22.8 0.2 0
23.2 0.2 0
23.6 0.2 0
24 0.2 0
24.4 0.2 0
24.8 0.2 0
25.2 0.2 0
25.6 0.2 0
26 0.2 0
26.4 0.2 0
26.8 0.2 0
27.2 0.2 0
27.6 0.2 0
28 0.2 0
28.4 0.2 0
28.8 0.2 0
29.2 0.2 0
29.6 0.2 0
30 0.2 0
30.4 0.2 0
30.8 0.2 0
31.2 0.2 0
31.6 0.2 0
32 0.2 0
32.4 0.2 0
32.8 0.2 0
33.2 0.2 0
33.6 0.2 0
34 0.2 0
34.4 0.2 0
34.8 0.2 0
35.2 0.2 0
35.6 0.2 0
36 0.2 0
36.4 0.2 0
36.8 0.2 0
37.2 0.2 0
37.6 0.2 0
38 0.2 0
38.4 0.2 0
38.8 0.2 0
39.2 0.2 0
39.6 0.2 0
40 0.2 0
40.4 0.2 0
0 0.3 0
0.4 0.3 0
0.8 0.3 0
1.2 0.3 0
1.6 0.3 0
2 0.3 0
2.4 0.3 0
2.8 0.3 0
3.2 0.3 0
3.6 0.3 0
4 0.3 0
4.4 0.3 0
4.8 0.3 0
5.2 0.3 0
5.6 0.3 0
6 0.3 0
6.4 0.3 0
6.8 0.3 0
7.2 0.3 0
7.6 0.3 0
8 0.3 0
8.4 0.3 0
8.8 0.3 0
9.2 0.3 0
9.6 0.3 0
10 0.3 0
10.4 0.3 0
10.8 0.3 0
11.2 0.3 0
11.6 0.3 0
12 0.3 0
12.4 0.3 0
12.8 0.3 0
13.2 0.3 0
13.6 0.3 0
14 0.3 0
14.4 0.3 0
14.8 0.3 0
15.2 0.3 0
15.6 0.3 0
16 0.3 0
16.4 0.3 0
16.8 0.3 0
17.2 0.3 0
17.6 0.3 0
18 0.3 0
18.4 0.3 0
18.8 0.3 0
19.2 0.3 0
19.6 0.3 0
20 0.3 0
20.4 0.3 0
20.8 0.3 0
21.2 0.3 0
21.6 0.3 0
22 0.3 0
22.4 0.3 0
22.8 0.3 0
23.2 0.3 0
23.6 0.3 0
24 0.3 0
24.4 0.3 0
24.8 0.3 0
25.2 0.3 0
25.6 0.3 0
26 0.3 0
26.4 0.3 0
26.8 0.3 0
27.2 0.3 0
27.6 0.3 0
28 0.3 0
28.4 0.3 0
28.8 0.3 0
29.2 0.3 0
29.6 0.3 0
30 0.3 0
30.4 0.3 0
30.8 0.3 0
31.2 0.3 0
31.6 0.3 0
32 0.3 0
32.4 0.3 0
32.8 0.3 0
33.2 0.3 0
33.6 0.3 0
34 0.3 0
34.4 0.3 0
34.8 0.3 0
35.2 0.3 0
35.6 0.3 0
36 0.3 0
36.4 0.3 0
36.8 0.3 0
37.2 0.3 0
37.6 0.3 0
38 0.3 0
38.4 0.3 0
38.8 0.3 0
39.2 0.3 0
39.6 0.3 0
40 0.3 0
40.4 0.3 0
0 0.4 0
0.4 0.4 0
0.8 0.4 0
1.2 0.4 0
1.6 0.4 0
2 0.4 0
2.4 0.4 0
2.8 0.4 0
3.2 0.4 0
3.6 0.4 0
4 0.4 0
4.4 0.4 0
4.8 0.4 0
5.2 0.4 0
5.6 0.4 0
6 0.4 0
6.4 0.4 0
6.8 0.4 0
7.2 0.4 0
7.6 0.4 0
8 0.4 0
8.4 0.4 0
8.8 0.4 0
9.2 0.4 0
9.6 0.4 0
10 0.4 0
10.4 0.4 0
10.8 0.4 0
11.2 0.4 0
11.6 0.4 0
12 0.4 0
12.4 0.4 0
12.8 0.4 0
13.2 0.4 0
13.6 0.4 0
14 0.4 0
14.4 0.4 0
14.8 0.4 0
15.2 0.4 0
15.6 0.4 0
16 0.4 0
16.4 0.4 0
16.8 0.4 0
17.2 0.4 0
17.6 0.4 0
18 0.4 0
18.4 0.4 0
18.8 0.4 0
19.2 0.4 0
19.6 0.4 0
20 0.4 0
20.4 0.4 0
20.8 0.4 0
21.2 0.4 0
21.6 0.4 0
22 0.4 0
22.4 0.4 0
22.8 0.4 0
23.2 0.4 0
23.6 0.4 0
24 0.4 0
24.4 0.4 0
24.8 0.4 0
25.2 0.4 0
25.6 0.4 0
26 0.4 0
26.4 0.4 0
26.8 0.4 0
27.2 0.4 0
27.6 0.4 0
28 0.4 0
28.4 0.4 0
28.8 0.4 0
29.2 0.4 0
29.6 0.4 0
30 0.4 0
30.4 0.4 0
30.8 0.4 0
31.2 0.4 0
31.6 0.4 0
32 0.4 0
32.4 0.4 0
32.8 0.4 0
33.2 0.4 0
33.6 0.4 0
34 0.4 0
34.4 0.4 0
34.8 0.4 0
35.2 0.4 0
35.6 0.4 0
36 0.4 0
36.4 0.4 0
36.8 0.4 0
37.2 0.4 0
37.6 0.4 0
38 0.4 0
38.4 0.4 0
38.8 0.4 0
39.2 0.4 0
39.6 0.4 0
40 0.4 0
40.4 0.4 0
0 0.5 0
0.4 0.5 0
0.8 0.5 0
1.2 0.5 0
1.6 0.5 0
2 0.5 0
2.4 0.5 0
2.8 0.5 0
3.2 0.5 0
3.6 0.5 0
4 0.5 0
4.4 0.5 0
4.8 0.5 0
5.2 0.5 0
5.6 0.5 0
6 0.5 0
6.4 0.5 0
6.8 0.5 0
7.2 0.5 0
7.6 0.5 0
8 0.5 0
8.4 0.5 0
8.8 0.5 0
9.2 0.5 0
9.6 0.5 0
10 0.5 0
10.4 0.5 0
10.8 0.5 0
11.2 0.5 0
11.6 0.5 0
12 0.5 0
12.4 0.5 0
12.8 0.5 0
13.2 0.5 0
13.6 0.5 0
14 0.5 0
14.4 0.5 0
14.8 0.5 0
15.2 0.5 0
15.6 0.5 0
16 0.5 0
16.4 0.5 0
16.8 0.5 0
17.2 0.5 0
17.6 0.5 0
18 0.5 0
18.4 0.5 0
18.8 0.5 0
19.2 0.5 0
19.6 0.5 0
20 0.5 0
20.4 0.5 0
20.8 0.5 0
21.2 0.5 0
21.6 0.5 0
22 0.5 0
22.4 0.5 0
22.8 0.5 0
23.2 0.5 0
23.6 0.5 0
24 0.5 0
24.4 0.5 0
24.8 0.5 0
25.2 0.5 0
25.6 0.5 0
26 0.5 0
26.4 0.5 0
26.8 0.5 0
27.2 0.5 0
27.6 0.5 0
28 0.5 0
28.4 0.5 0
28.8 0.5 0
29.2 0.5 0
29.6 0.5 0
30 0.5 0
30.4 0.5 0
30.8 0.5 0
31.2 0.5 0
31.6 0.5 0
32 0.5 0
32.4 0.5 0
32.8 0.5 0
33.2 0.5 0
33.6 0.5 0
34 0.5 0
34.4 0.5 0
34.8 0.5 0
35.2 0.5 0
35.6 0.5 0
36 0.5 0
36.4 0.5 0
36.8 0.5 0
37.2 0.5 0
37.6 0.5 0
38 0.5 0
38.4 0.5 0
38.8 0.5 0
39.2 0.5 0
39.6 0.5 0
40 0.5 0
40.4 0.5 0
0 0.6 0
0.4 0.6 0
0.8 0.6 0
1.2 0.6 0
1.6 0.6 0
2 0.6 0
2.4 0.6 0
2.8 0.6 0
3.2 0.6 0
3.6 0.6 0
4 0.6 0
4.4 0.6 0
4.8 0.6 0
5.2 0.6 0
5.6 0.6 0
6 0.6 0
6.4 0.6 0
6.8 0.6 0
7.2 0.6 0
7.6 0.6 0
8 0.6 0
8.4 0.6 0
8.8 0.6 0
9.2 0.6 0
9.6 0.6 0
10 0.6 0
10.4 0.6 0
10.8 0.6 0
11.2 0.6 0
11.6 0.6 0
12 0.6 0
12.4 0.6 0
12.8 0.6 0
13.2 0.6 0
13.6 0.6 0
14 0.6 0
14.4 0.6 0
14.8 0.6 0
15.2 0.6 0
15.6 0.6 0
16 0.6 0
16.4 0.6 0
16.8 0.6 0
17.2 0.6 0
17.6 0.6 0
18 0.6 0
18.4 0.6 0
18.8 0.6 0
19.2 0.6 0
19.6 0.6 0
20 0.6 0
20.4 0.6 0
20.8 0.6 0
21.2 0.6 0
21.6 0.6 0
22 0.6 0
22.4 0.6 0
22.8 0.6 0
23.2 0.6 0
23.6 0.6 0
24 0.6 0
24.4 0.6 0
24.8 0.6 0
25.2 0.6 0
25.6 0.6 0
26 0.6 0
26.4 0.6 0
26.8 0.6 0
27.2 0.6 0
27.6 0.6 0
28 0.6 0
28.4 0.6 0
28.8 0.6 0
29.2 0.6 0
29.6 0.6 0
30 0.6 0
30.4 0.6 0
30.8 0.6 0
31.2 0.6 0
31.6 0.6 0
32 0.6 0
32.4 0.6 0
32.8 0.6 0
33.2 0.6 0
33.6 0.6 0
34 0.6 0
34.4 0.6 0
34.8 0.6 0
35.2 0.6 0
35.6 0.6 0
36 0.6 0
36.4 0.6 0
36.8 0.6 0
37.2 0.6 0
37.6 0.6 0
38 0.6 0
38.4 0.6 0
38.8 0.6 0
39.2 0.6 0
39.6 0.6 0
40 0.6 0
40.4 0.6 0
0 0.7 0
0.4 0.7 0
0.8 0.7 0
1.2 0.7 0
1.6 0.7 0
2 0.7 0
2.4 0.7 0
2.8 0.7 0
3.2 0.7 0
3.6 0.7 0
4 0.7 0
4.4 0.7 0
4.8 0.7 0
5.2 0.7 0
5.6 0.7 0
6 0.7 0
6.4 0.7 0
6.8 0.7 0
7.2 0.7 0
7.6 0.7 0
8 0.7 0
8.4 0.7 0
8.8 0.7 0
9.2 0.7 0
9.6 0.7 0
10 0.7 0
10.4 0.7 0
10.8 0.7 0
11.2 0.7 0
11.6 0.7 0
12 0.7 0
12.4 0.7 0
12.8 0.7 0
13.2 0.7 0
13.6 0.7 0
14 0.7 0
14.4 0.7 0
14.8 0.7 0
15.2 0.7 0
15.6 0.7 0
16 0.7 0
16.4 0.7 0
16.8 0.7 0
17.2 0.7 0
17.6 0.7 0
18 0.7 0
18.4 0.7 0
18.8 0.7 0
19.2 0.7 0
19.6 0.7 0
20 0.7 0
20.4 0.7 0
20.8 0.7 0
21.2 0.7 0
21.6 0.7 0
22 0.7 0
22.4 0.7 0
22.8 0.7 0
23.2 0.7 0
23.6 0.7 0
24 0.7 0
24.4 0.7 0
24.8 0.7 0
25.2 0.7 0
25.6 0.7 0
26 0.7 0
26.4 0.7 0
26.8 0.7 0
27.2 0.7 0
27.6 0.7 0
28 0.7 0
28.4 0.7 0
28.8 0.7 0
29.2 0.7 0
29.6 0.7 0
30 0.7 0
30.4 0.7 0
30.8 0.7 0
31.2 0.7 0
31.6 0.7 0
32 0.7 0
32.4 0.7 0
32.8 0.7 0
33.2 0.7 0
33.6 0.7 0
34 0.7 0
34.4 0.7 0
34.8 0.7 0
35.2 0.7 0
35.6 0.7 0
36 0.7 0
36.4 0.7 0
36.8 0.7 0
37.2 0.7 0
37.6 0.7 0
38 0.7 0
38.4 0.7 0
38.8 0.7 0
39.2 0.7 0
39.6 0.7 0
40 0.7 0
40.4 0.7 0
0 0.8 0
0.4 0.8 0
0.8 0.8 0
1.2 0.8 0
1.6 0.8 0
2 0.8 0
2.4 0.8 0
2.8 0.8 0
3.2 0.8 0
3.6 0.8 0
4 0.8 0
4.4 0.8 0
4.8 0.8 0
5.2 0.8 0
5.6 0.8 0
6 0.8 0
6.4 0.8 0
6.8 0.8 0
7.2 0.8 0
7.6 0.8 0
8 0.8 0
8.4 0.8 0
8.8 0.8 0
9.2 0.8 0
9.6 0.8 0
10 0.8 0
10.4 0.8 0
10.8 0.8 0
11.2 0.8 0
11.6 0.8 0
12 0.8 0
12.4 0.8 0
12.8 0.8 0
13.2 0.8 0
13.6 0.8 0
14 0.8 0
14.4 0.8 0
14.8 0.8 0
15.2 0.8 0
15.6 0.8 0
16 0.8 0
16.4 0.8 0
16.8 0.8 0
17.2 0.8 0
17.6 0.8 0
18 0.8 0
18.4 0.8 0
18.8 0.8 0
19.2 0.8 0
19.6 0.8 0
20 0.8 0
20.4 0.8 0
20.8 0.8 0
21.2 0.8 0
21.6 0.8 0
22 0.8 0
22.4 0.8 0
22.8 0.8 0
23.2 0.8 0
23.6 0.8 0
24 0.8 0
24.4 0.8 0
24.8 0.8 0
25.2 0.8 0
25.6 0.8 0
26 0.8 0
26.4 0.8 0
26.8 0.8 0
27.2 0.8 0
27.6 0.8 0
28 0.8 0
28.4 0.8 0
28.8 0.8 0
29.2 0.8 0
29.6 0.8 0
30 0.8 0
30.4 0.8 0
30.8 0.8 0
31.2 0.8 0
31.6 0.8 0
32 0.8 0
32.4 0.8 0
32.8 0.8 0
33.2 0.8 0
33.6 0.8 0
34 0.8 0
34.4 0.8 0
34.8 0.8 0
35.2 0.8 0
35.6 0.8 0
36 0.8 0
36.4 0.8 0
36.8 0.8 0
37.2 0.8 0
37.6 0.8 0
38 0.8 0
38.4 0.8 0
38.8 0.8 0
39.2 0.8 0
39.6 0.8 0
40 0.8 0
40.4 0.8 0
0 0.9 0
0.4 0.9 0
0.8 0.9 0
1.2 0.9 0
1.6 0.9 0
2 0.9 0
2.4 0.9 0
2.8 0.9 0
3.2 0.9 0
3.6 0.9 0
4 0.9 0
4.4 0.9 0
4.8 0.9 0
5.2 0.9 0
5.6 0.9 0
6 0.9 0
6.4 0.9 0
6.8 0.9 0
7.2 0.9 0
7.6 0.9 0
8 0.9 0
8.4 0.9 0
8.8 0.9 0
9.2 0.9 0
9.6 0.9 0
10 0.9 0
10.4 0.9 0
10.8 0.9 0
11.2 0.9 0
11.6 0.9 0
12 0.9 0
12.4 0.9 0
12.8 0.9 0
13.2 0.9 0
13.6 0.9 0
14 0.9 0
14.4 0.9 0
14.8 0.9 0
15.2 0.9 0
15.6 0.9 0
16 0.9 0
16.4 0.9 0
16.8 0.9 0
17.2 0.9 0
17.6 0.9 0
18 0.9 0
18.4 0.9 0
18.8 0.9 0
19.2 0.9 0
19.6 0.9 0
20 0.9 0
20.4 0.9 0
20.8 0.9 0
21.2 0.9 0
21.6 0.9 0
22 0.9 0
22.4 0.9 0
22.8 0.9 0
23.2 0.9 0
23.6 0.9 0
24 0.9 0
24.4 0.9 0
24.8 0.9 0
25.2 0.9 0
25.6 0.9 0
26 0.9 0
26.4 0.9 0
26.8 0.9 0
27.2 0.9 0
27.6 0.9 0
28 0.9 0
28.4 0.9 0
28.8 0.9 0
29.2 0.9 0
29.6 0.9 0
30 0.9 0
30.4 0.9 0
30.8 0.9 0
31.2 0.9 0
31.6 0.9 0
32 0.9 0
32.4 0.9 0
32.8 0.9 0
33.2 0.9 0
33.6 0.9 0
34 0.9 0
34.4 0.9 0
34.8 0.9 0
35.2 0.9 0
35.6 0.9 0
36 0.9 0
36.4 0.9 0
36.8 0.9 0
37.2 0.9 0
37.6 0.9 0
38 0.9 0
38.4 0.9 0
38.8 0.9 0
39.2 0.9 0
39.6 0.9 0
40 0.9 0
40.4 0.9 0
0 1 0
0.4 1 0
0.8 1 0
1.2 1 0
1.6 1 0
2 1 0
2.4 1 0
2.8 1 0
3.2 1 0
3.6 1 0
4 1 0
4.4 1 0
4.8 1 0
5.2 1 0
5.6 1 0
6 1 0
6.4 1 0
6.8 1 0
7.2 1 0
7.6 1 0
8 1 0
8.4 1 0
8.8 1 0
9.2 1 0
9.6 1 0
10 1 0
10.4 1 0
10.8 1 0
11.2 1 0
11.6 1 0
12 1 0
12.4 1 0
12.8 1 0
13.2 1 0
13.6 1 0
14 1 0
14.4 1 0
14.8 1 0
15.2 1 0
15.6 1 0
16 1 0
16.4 1 0
16.8 1 0
17.2 1 0
17.6 1 0
18 1 0
18.4 1 0
18.8 1 0
19.2 1 0
19.6 1 0
20 1 0
20.4 1 0
20.8 1 0
21.2 1 0
21.6 1 0
22 1 0
22.4 1 0
22.8 1 0
23.2 1 0
23.6 1 0
24 1 0
24.4 1 0
24.8 1 0
25.2 1 0
25.6 1 0
26 1 0
26.4 1 0
26.8 1 0
27.2 1 0
27.6 1 0
28 1 0
28.4 1 0
28.8 1 0
29.2 1 0
29.6 1 0
30 1 0
30.4 1 0
30.8 1 0
31.2 1 0
31.6 1 0
32 1 0
32.4 1 0
32.8 1 0
33.2 1 0
33.6 1 0
34 1 0
34.4 1 0
34.8 1 0
35.2 1 0
35.6 1 0
36 1 0
36.4 1 0
36.8 1 0
37.2 1 0
37.6 1 0
38 1 0
38.4 1 0
38.8 1 0
39.2 1 0
39.6 1 0
40 1 0
40.4 1 0
0 1.1 0
0.4 1.1 0
0.8 1.1 0
1.2 1.1 0
1.6 1.1 0
2 1.1 0
2.4 1.1 0
2.8 1.1 0
3.2 1.1 0
3.6 1.1 0
4 1.1 0
4.4 1.1 0
4.8 1.1 0
5.2 1.1 0
5.6 1.1 0
6 1.1 0
6.4 1.1 0
6.8 1.1 0
7.2 1.1 0
7.6 1.1 0
8 1.1 0
8.4 1.1 0
8.8 1.1 0
9.2 1.1 0
9.6 1.1 0
10 1.1 0
10.4 1.1 0
10.8 1.1 0
11.2 1.1 0
11.6 1.1 0
12 1.1 0
12.4 1.1 0
12.8 1.1 0
13.2 1.1 0
13.6 1.1 0
14 1.1 0
14.4 1.1 0
14.8 1.1 0
15.2 1.1 0
15.6 1.1 0
16 1.1 0
16.4 1.1 0
16.8 1.1 0
17.2 1.1 0
17.6 1.1 0
18 1.1 0
18.4 1.1 0
18.8 1.1 0
19.2 1.1 0
19.6 1.1 0
20 1.1 0
20.4 1.1 0
20.8 1.1 0
21.2 1.1 0
21.6 1.1 0
22 1.1 0
22.4 1.1 0
22.8 1.1 0
23.2 1.1 0
23.6 1.1 0
24 1.1 0
24.4 1.1 0
24.8 1.1 0
25.2 1.1 0
25.6 1.1 0
26 1.1 0
26.4 1.1 0
26.8 1.1 0
27.2 1.1 0
27.6 1.1 0
28 1.1 0
28.4 1.1 0
28.8 1.1 0
29.2 1.1 0
29.6 1.1 0
30 1.1 0
30.4 1.1 0
30.8 1.1 0
31.2 1.1 0
31.6 1.1 0
32 1.1 0
32.4 1.1 0
32.8 1.1 0
33.2 1.1 0
33.6 1.1 0
34 1.1 0
34.4 1.1 0
34.8 1.1 0
35.2 1.1 0
35.6 1.1 0
36 1.1 0
36.4 1.1 0
36.8 1.1 0
37.2 1.1 0
37.6 1.1 0
38 1.1 0
38.4 1.1 0
38.8 1.1 0
39.2 1.1 0
39.6 1.1 0
40 1.1 0
40.4 1.1 0

POINT_DATA 1224

SCALARS u double
LOOKUP_TABLE default
-1
-0.80718
-0.65903
-0.550107
-0.474359
-0.423299
-0.38902
-0.365684
-0.349495
-0.338135
-0.330192
-0.324753
-0.321172
-0.318948
-0.317678
-0.317041
-0.316794
-0.316762
-0.316833
-0.316939
-0.317044
-0.317132
-0.317199
-0.317247
-0.317279
-0.3173
-0.317312
-0.31732
-0.317323
-0.317325
-0.317326
-0.317326
-0.317326
-0.317326
-0.317326
-0.317326
-0.317325
-0.317325
-0.317325
-0.317325
-0.317325
-0.317325
-0.317325
-0.317325
-0.317325
-0.317325
-0.317325
-0.317325
-0.317325
-0.317325
-0.317325
-0.317325
-0.317325
-0.317325
-0.317325
-0.317325
-0.317325
-0.317324
-0.317324
-0.317324
-0.317324
-0.317324
-0.317324
-0.317324
-0.317324
-0.317324
-0.317324
-0.317324
-0.317324
-0.317324
-0.317324
-0.317324
-0.317324
-0.317324
-0.317324
-0.317324
-0.317324
-0.317324
-0.317324
-0.317323
-0.317323
-0.317323
-0.317323
-0.317323
-0.317323
-0.317323
-0.317323
-0.317323
-0.317323
-0.317323
-0.317324
-0.317325
-0.317332
-0.317353
-0.317466
-0.317763
-0.319442
-0.32364
-0.34936
-0.383709
-1
-0.383709
1
0.80718
0.65903
0.550107
0.47436
0.423299
0.389018
0.365675
0.349475
0.338099
0.330136
0.324677
0.321077
0.318838
0.317556
0.316911
0.316659
0.316626
0.316697
0.316804
0.31691
0.317
0.317068
0.317117
0.31715
0.317171
0.317184
0.317192
0.317196
0.317197
0.317198
0.317199
0.317198
0.317198
0.317198
0.317198
0.317198
0.317198
0.317198
0.317197
0.317197
0.317197
0.317197
0.317197
0.317197
0.317197
0.317197
0.317197
0.317197
0.317197
0.317197
0.317197
0.317197
0.317197
0.317197
0.317197
0.317197
0.317197
0.317197
0.317197
0.317197
0.317197
0.317197
0.317197
0.317197
0.317196
0.317196
0.317196
0.317196
0.317196
0.317196
0.317196
0.317196
0.317196
0.317196
0.317196
0.317196
0.317196
0.317196
0.317196
0.317196
0.317196
0.317196
0.317196
0.317196
0.317196
0.317195
0.317195
0.317195
0.317195
0.317196
0.317197
0.317205
0.317226
0.317338
0.317636
0.319315
0.323516
0.349245
0.383641
1
0.383709
1
1.02373
1.02809
1.01224
0.983944
0.950661
0.917649
0.887965
0.863051
0.843319
0.828554
0.818158
0.811334
0.807225
0.80503
0.804075
0.803846
0.803987
0.804275
0.804584
0.804855
0.805068
0.805224
0.805331
0.805401
0.805445
0.805471
0.805486
0.805494
0.805497
0.805499
0.805499
0.805499
0.805499
0.805498
0.805498
0.805498
0.805498
0.805498
0.805498
0.805498
0.805498
0.805498
0.805498
0.805498
0.805498
0.805497
0.805497
0.805497
0.805497
0.805497
0.805497
0.805497
0.805497
0.805497
0.805497
0.805497
0.805497
0.805497
0.805497
0.805497
0.805496
0.805496
0.805496
0.805496
0.805496
0.805496
0.805496
0.805496
0.805495
0.805495
0.805495
0.805495
0.805495
0.805494
0.805494
0.805494
0.805494
0.805494
0.805494
0.805493
0.805493
0.805493
0.805493
0.805492
0.805492
0.805492
0.805492
0.805492
0.805491
0.805491
0.805492
0.805494
0.805501
0.805543
0.805632
0.806338
0.807377
0.818349
0.837371
1
0.837605
1
1.04017
1.08473
1.11989
1.14302
1.1554
1.15969
1.15862
1.15452
1.14916
1.14378
1.13917
1.13569
1.13338
1.1321
1.13158
1.13155
1.13178
1.13211
1.13244
1.13272
1.13294
1.13311
1.13322
1.13329
1.13334
1.13337
1.13339
1.1334
1.1334
1.1334
1.13341
1.13341
1.13341
1.13341
1.13341
1.13341
1.13341
1.13341
1.13341
1.13341
1.13341
1.13341
1.13341
1.13341
1.13341
1.13341
1.13341
1.13341
1.13341
1.13341
1.13341
1.13341
1.13341
1.13341
1.13341
1.13341
1.13341
1.13341
1.13341
1.13341
1.13341
1.13341
1.1334
1.1334
1.1334
1.1334
1.1334
1.1334
1.1334
1.1334
1.1334
1.1334
1.1334
1.1334
1.1334
1.1334
1.1334
1.1334
1.1334
1.1334
1.1334
1.1334
1.1334
1.1334
1.1334
1.1334
1.1334
1.1334
1.1334
1.1334
1.1334
1.13339
1.1334
1.13337
1.13337
1.133
1.13293
1.12714
1.13418
1
1.13433
1
1.03766
1.08576
1.13255
1.17421
1.20957
1.23865
1.26197
1.2802
1.29401
1.30408
1.31106
1.31563
1.3184
1.31993
1.32066
1.32092
1.32094
1.32085
1.32074
1.32063
1.32054
1.32047
1.32043
1.3204
1.32038
1.32037
1.32037
1.32036
1.32036
1.32036
1.32036
1.32036
1.32036
1.32036
1.32036
1.32036
1.32036
1.32036
1.32036
1.32036
1.32036
1.32036
1.32036
1.32036
1.32037
1.32037
1.32037
1.32037
1.32037
1.32037
1.32037
1.32037
1.32036
1.32036
1.32036
1.32036
1.32036
1.32036
1.32036
1.32036
1.32036
1.32036
1.32036
1.32036
1.32036
1.32036
1.32036
1.32036
1.32036
1.32036
1.32036
1.32036
1.32036
1.32036
1.32036
1.32036
1.32036
1.32036
1.32036
1.32036
1.32036
1.32036
1.32036
1.32036
1.32036
1.32036
1.32036
1.32036
1.32036
1.32036
1.32036
1.32035
1.32035
1.32029
1.32022
1.3193
1.31852
1.30368
1.30121
1
1.30107
1
1.03576
1.08266
1.1305
1.17619
1.21856
1.25705
1.29133
1.32106
1.34596
1.36588
1.38093
1.39154
1.39839
1.40232
1.40417
1.40469
1.40447
1.40393
1.40331
1.40274
1.40229
1.40195
1.40171
1.40154
1.40144
1.40138
1.40134
1.40132
1.40131
1.4013
1.4013
1.4013
1.4013
1.4013
1.4013
1.4013
1.4013
1.4013
1.4013
1.4013
1.4013
1.4013
1.4013
1.4013
1.4013
1.4013
1.4013
1.4013
1.4013
1.4013
1.4013
1.4013
1.4013
1.4013
1.4013
1.4013
1.4013
1.4013
1.4013
1.4013
1.4013
1.4013
1.4013
1.4013
1.4013
1.4013
1.4013
1.4013
1.4013
1.4013
1.4013
1.4013
1.4013
1.4013
1.4013
1.4013
1.4013
1.4013
1.4013
1.4013
1.4013
1.4013
1.4013
1.4013
1.4013
1.4013
1.4013
1.4013
1.4013
1.4013
1.4013
1.40129
1.40128
1.40123
1.40106
1.40008
1.39839
1.38085
1.36938
1
1.36902
1
1.03576
1.08266
1.1305
1.17619
1.21856
1.25705
1.29133
1.32106
1.34596
1.36588
1.38093
1.39154
1.39839
1.40232
1.40417
1.40469
1.40447
1.40393
1.40331
1.40274
1.40229
1.40194
1.4017
1.40154
1.40144
1.40137
1.40134
1.40132
1.40131
1.4013
1.4013
1.4013
1.4013
1.4013
1.4013
1.4013
1.4013
1.4013
1.4013
1.4013
1.4013
1.4013
1.4013
1.4013
1.4013
1.4013
1.4013
1.4013
1.4013
1.4013
1.4013
1.4013
1.4013
1.4013
1.4013
1.4013
1.4013
1.4013
1.4013
1.4013
1.4013
1.4013
1.4013
1.4013
1.4013
1.4013
1.4013
1.4013
1.4013
1.4013
1.4013
1.4013
1.4013
1.4013
1.4013
1.4013
1.4013
1.4013
1.4013
1.4013
1.4013
1.4013
1.4013
1.4013
1.4013
1.4013
1.4013
1.4013
1.4013
1.4013
1.4013
1.4013
1.40128
1.40123
1.40106
1.40008
1.39839
1.38085
1.36938
1
1.36902
1
1.03766
1.08576
1.13255
1.17421
1.20957
1.23865
1.26197
1.2802
1.29401
1.30408
1.31107
1.31563
1.31841
1.31993
1.32066
1.32092
1.32094
1.32085
1.32073
1.32062
1.32053
1.32047
1.32042
1.32039
1.32038
1.32037
1.32036
1.32036
1.32036
1.32036
1.32036
1.32036
1.32036
1.32036
1.32036
1.32036
1.32036
1.32036
1.32036
1.32036
1.32036
1.32036
1.32036
1.32036
1.32036
1.32036
1.32036
1.32036
1.32036
1.32036
1.32036
1.32036
1.32036
1.32036
1.32036
1.32036
1.32036
1.32036
1.32036
1.32036
1.32036
1.32036
1.32036
1.32036
1.32036
1.32036
1.32036
1.32036
1.32036
1.32036
1.32036
1.32036
1.32036
1.32036
1.32036
1.32036
1.32036
1.32036
1.32036
1.32036
1.32036
1.32036
1.32036
1.32036
1.32036
1.32036
1.32036
1.32036
1.32036
1.32036
1.32036
1.32036
1.32035
1.32029
1.32022
1.3193
1.31853
1.30368
1.30121
1
1.30108
1
1.04017
1.08473
1.11989
1.14302
1.1554
1.15969
1.15863
1.15452
1.14916
1.14379
1.13917
1.13569
1.13339
1.13211
1.13158
1.13155
1.13178
1.1321
1.13243
1.13272
1.13294
1.1331
1.13321
1.13329
1.13334
1.13337
1.13338
1.13339
1.1334
1.1334
1.1334
1.1334
1.1334
1.1334
1.1334
1.1334
1.1334
1.1334
1.1334
1.1334
1.1334
1.1334
1.1334
1.1334
1.1334
1.1334
1.1334
1.1334
1.1334
1.1334
1.1334
1.1334
1.1334
1.1334
1.1334
1.1334
1.1334
1.1334
1.1334
1.1334
1.1334
1.1334
1.1334
1.1334
1.1334
1.1334
1.1334
1.1334
1.1334
1.1334
1.1334
1.1334
1.1334
1.1334
1.1334
1.1334
1.1334
1.1334
1.1334
1.1334
1.1334
1.1334
1.1334
1.1334
1.1334
1.1334
1.1334
1.1334
1.1334
1.1334
1.1334
1.1334
1.1334
1.13337
1.13337
1.133
1.13294
1.12715
1.13418
1
1.13433
1
1.02373
1.02809
1.01224
0.983944
0.950661
0.91765
0.887968
0.863055
0.843324
0.828559
0.818164
0.811339
0.807229
0.805032
0.804075
0.803845
0.803985
0.804273
0.804581
0.804852
0.805065
0.805221
0.805328
0.805398
0.805442
0.805468
0.805483
0.805491
0.805495
0.805496
0.805496
0.805496
0.805496
0.805496
0.805495
0.805495
0.805495
0.805495
0.805495
0.805495
0.805495
0.805495
0.805495
0.805495
0.805495
0.805495
0.805495
0.805495
0.805495
0.805496
0.805496
0.805496
0.805495
0.805495
0.805495
0.805495
0.805495
0.805495
0.805495
0.805495
0.805495
0.805495
0.805495
0.805495
0.805495
0.805495
0.805495
0.805495
0.805495
0.805495
0.805494
0.805494
0.805494
0.805494
0.805494
0.805494
0.805494
0.805494
0.805493
0.805493
0.805493
0.805493
0.805493
0.805493
0.805493
0.805492
0.805492
0.805492
0.805492
0.805492
0.805492
0.805495
0.805502
0.805544
0.805633
0.806339
0.807378
0.818349
0.837371
1
0.837605
1
0.80718
0.65903
0.550108
0.47436
0.4233
0.38902
0.365677
0.349477
0.338101
0.330138
0.324679
0.321079
0.318839
0.317557
0.316911
0.316659
0.316625
0.316696
0.316803
0.316909
0.316999
0.317067
0.317116
0.317149
0.31717
0.317183
0.317191
0.317195
0.317197
0.317198
0.317198
0.317198
0.317198
0.317197
0.317197
0.317197
0.317197
0.317197
0.317197
0.317197
0.317197
0.317197
0.317197
0.317197
0.317197
0.317197
0.317197
0.317197
0.317196
0.317196
0.317196
0.317196
0.317196
0.317196
0.317196
0.317196
0.317196
0.317196
0.317196
0.317196
0.317196
0.317196
0.317196
0.317196
0.317196
0.317196
0.317196
0.317196
0.317196
0.317196
0.317196
0.317196
0.317196
0.317196
0.317195
0.317195
0.317195
0.317195
0.317195
0.317195
0.317195
0.317195
0.317195
0.317195
0.317195
0.317195
0.317195
0.317195
0.317195
0.317196
0.317197
0.317204
0.317225
0.317337
0.317635
0.319315
0.323515
0.349244
0.383639
1
0.383707
-1
-0.80718
-0.65903
-0.550108
-0.47436
-0.4233
-0.389022
-0.365685
-0.349497
-0.338138
-0.330194
-0.324755
-0.321174
-0.31895
-0.317679
-0.317042
-0.316794
-0.316762
-0.316833
-0.316938
-0.317043
-0.317131
-0.317199
-0.317246
-0.317279
-0.317299
-0.317312
-0.317319
-0.317323
-0.317325
-0.317325
-0.317326
-0.317325
-0.317325
-0.317325
-0.317325
-0.317325
-0.317325
-0.317325
-0.317325
-0.317325
-0.317324
-0.317324
-0.317324
-0.317324
-0.317324
-0.317324
-0.317324
-0.317324
-0.317324
-0.317324
-0.317324
-0.317324
-0.317324
-0.317324
-0.317324
-0.317324
-0.317324
-0.317324
-0.317324
-0.317324
-0.317324
-0.317324
-0.317324
-0.317324
-0.317324
-0.317324
-0.317323
-0.317323
-0.317323
-0.317323
-0.317323
-0.317323
-0.317323
-0.317323
-0.317323
-0.317323
-0.317323
-0.317323
-0.317323
-0.317323
-0.317323
-0.317323
-0.317323
-0.317323
-0.317323
-0.317323
-0.317323
-0.317323
-0.317323
-0.317323
-0.317325
-0.317332
-0.317353
-0.317465
-0.317763
-0.319441
-0.323639
-0.349359
-0.383707
-1
-0.383707
