# vtk DataFile Version 2.0
FlowField
ASCII
DATASET STRUCTURED_GRID
DIMENSIONS 102 1 12 
POINTS 1224 double
0 0 0
0.4 0 0
0.8 0 0
1.2 0 0
1.6 0 0
2 0 0
2.4 0 0
2.8 0 0
3.2 0 0
3.6 0 0
4 0 0
4.4 0 0
4.8 0 0
5.2 0 0
5.6 0 0
6 0 0
6.4 0 0
6.8 0 0
7.2 0 0
7.6 0 0
8 0 0
8.4 0 0
8.8 0 0
9.2 0 0
9.6 0 0
10 0 0
10.4 0 0
10.8 0 0
11.2 0 0
11.6 0 0
12 0 0
12.4 0 0
12.8 0 0
13.2 0 0
13.6 0 0
14 0 0
14.4 0 0
14.8 0 0
15.2 0 0
15.6 0 0
16 0 0
16.4 0 0
16.8 0 0
17.2 0 0
17.6 0 0
18 0 0
18.4 0 0
18.8 0 0
19.2 0 0
19.6 0 0
20 0 0
20.4 0 0
20.8 0 0
21.2 0 0
21.6 0 0
22 0 0
22.4 0 0
22.8 0 0
23.2 0 0
23.6 0 0
24 0 0
24.4 0 0
24.8 0 0
25.2 0 0
25.6 0 0
26 0 0
26.4 0 0
26.8 0 0
27.2 0 0
27.6 0 0
28 0 0
28.4 0 0
28.8 0 0
29.2 0 0
29.6 0 0
30 0 0
30.4 0 0
30.8 0 0
31.2 0 0
31.6 0 0
32 0 0
32.4 0 0
32.8 0 0
33.2 0 0
33.6 0 0
34 0 0
34.4 0 0
34.8 0 0
35.2 0 0
35.6 0 0
36 0 0
36.4 0 0
36.8 0 0
37.2 0 0
37.6 0 0
38 0 0
38.4 0 0
38.8 0 0
39.2 0 0
39.6 0 0
40 0 0
40.4 0 0
0 0.1 0
0.4 0.1 0
0.8 0.1 0
1.2 0.1 0
1.6 0.1 0
2 0.1 0
2.4 0.1 0
2.8 0.1 0
3.2 0.1 0
3.6 0.1 0
4 0.1 0
4.4 0.1 0
4.8 0.1 0
5.2 0.1 0
5.6 0.1 0
6 0.1 0
6.4 0.1 0
6.8 0.1 0
7.2 0.1 0
7.6 0.1 0
8 0.1 0
8.4 0.1 0
8.8 0.1 0
9.2 0.1 0
9.6 0.1 0
10 0.1 0
10.4 0.1 0
10.8 0.1 0
11.2 0.1 0
11.6 0.1 0
12 0.1 0
12.4 0.1 0
12.8 0.1 0
13.2 0.1 0
13.6 0.1 0
14 0.1 0
14.4 0.1 0
14.8 0.1 0
15.2 0.1 0
15.6 0.1 0
16 0.1 0
16.4 0.1 0
16.8 0.1 0
17.2 0.1 0
17.6 0.1 0
18 0.1 0
18.4 0.1 0
18.8 0.1 0
19.2 0.1 0
19.6 0.1 0
20 0.1 0
20.4 0.1 0
20.8 0.1 0
21.2 0.1 0
21.6 0.1 0
22 0.1 0
22.4 0.1 0
22.8 0.1 0
23.2 0.1 0
23.6 0.1 0
24 0.1 0
24.4 0.1 0
24.8 0.1 0
25.2 0.1 0
25.6 0.1 0
26 0.1 0
26.4 0.1 0
26.8 0.1 0
27.2 0.1 0
27.6 0.1 0
28 0.1 0
28.4 0.1 0
28.8 0.1 0
29.2 0.1 0
29.6 0.1 0
30 0.1 0
30.4 0.1 0
30.8 0.1 0
31.2 0.1 0
31.6 0.1 0
32 0.1 0
32.4 0.1 0
32.8 0.1 0
33.2 0.1 0
33.6 0.1 0
34 0.1 0
34.4 0.1 0
34.8 0.1 0
35.2 0.1 0
35.6 0.1 0
36 0.1 0
36.4 0.1 0
36.8 0.1 0
37.2 0.1 0
37.6 0.1 0
38 0.1 0
38.4 0.1 0
38.8 0.1 0
39.2 0.1 0
39.6 0.1 0
40 0.1 0
40.4 0.1 0
0 0.2 0
0.4 0.2 0
0.8 0.2 0
1.2 0.2 0
1.6 0.2 0
2 0.2 0
2.4 0.2 0
2.8 0.2 0
3.2 0.2 0
3.6 0.2 0
4 0.2 0
4.4 0.2 0
4.8 0.2 0
5.2 0.2 0
5.6 0.2 0
6 0.2 0
6.4 0.2 0
6.8 0.2 0
7.2 0.2 0
7.6 0.2 0
8 0.2 0
8.4 0.2 0
8.8 0.2 0
9.2 0.2 0
9.6 0.2 0
10 0.2 0
10.4 0.2 0
10.8 0.2 0
11.2 0.2 0
11.6 0.2 0
12 0.2 0
12.4 0.2 0
12.8 0.2 0
13.2 0.2 0
13.6 0.2 0
14 0.2 0
14.4 0.2 0
14.8 0.2 0
15.2 0.2 0
15.6 0.2 0
16 0.2 0
16.4 0.2 0
16.8 0.2 0
17.2 0.2 0
17.6 0.2 0
18 0.2 0
18.4 0.2 0
18.8 0.2 0
19.2 0.2 0
19.6 0.2 0
20 0.2 0
20.4 0.2 0
20.8 0.2 0
21.2 0.2 0
21.6 0.2 0
22 0.2 0
22.4 0.2 0
22.8 0.2 0
23.2 0.2 0
23.6 0.2 0
24 0.2 0
24.4 0.2 0
24.8 0.2 0
25.2 0.2 0
25.6 0.2 0
26 0.2 0
26.4 0.2 0
26.8 0.2 0
27.2 0.2 0
27.6 0.2 0
28 0.2 0
28.4 0.2 0
28.8 0.2 0
29.2 0.2 0
29.6 0.2 0
30 0.2 0
30.4 0.2 0
30.8 0.2 0
31.2 0.2 0
31.6 0.2 0
32 0.2 0
32.4 0.2 0
32.8 0.2 0
33.2 0.2 0
33.6 0.2 0
34 0.2 0
34.4 0.2 0
34.8 0.2 0
35.2 0.2 0
35.6 0.2 0
36 0.2 0
36.4 0.2 0
36.8 0.2 0
37.2 0.2 0
37.6 0.2 0
38 0.2 0
38.4 0.2 0
38.8 0.2 0
39.2 0.2 0
39.6 0.2 0
40 0.2 0
40.4 0.2 0
0 0.3 0
0.4 0.3 0
0.8 0.3 0
1.2 0.3 0
1.6 0.3 0
2 0.3 0
2.4 0.3 0
2.8 0.3 0
3.2 0.3 0
3.6 0.3 0
4 0.3 0
4.4 0.3 0
4.8 0.3 0
5.2 0.3 0
5.6 0.3 0
6 0.3 0
6.4 0.3 0
6.8 0.3 0
7.2 0.3 0
7.6 0.3 0
8 0.3 0
8.4 0.3 0
8.8 0.3 0
9.2 0.3 0
9.6 0.3 0
10 0.3 0
10.4 0.3 0
10.8 0.3 0
11.2 0.3 0
11.6 0.3 0
12 0.3 0
12.4 0.3 0
12.8 0.3 0
13.2 0.3 0
13.6 0.3 0
14 0.3 0
14.4 0.3 0
14.8 0.3 0
15.2 0.3 0
15.6 0.3 0
16 0.3 0
16.4 0.3 0
16.8 0.3 0
17.2 0.3 0
17.6 0.3 0
18 0.3 0
18.4 0.3 0
18.8 0.3 0
19.2 0.3 0
19.6 0.3 0
20 0.3 0
20.4 0.3 0
20.8 0.3 0
21.2 0.3 0
21.6 0.3 0
22 0.3 0
22.4 0.3 0
22.8 0.3 0
23.2 0.3 0
23.6 0.3 0
24 0.3 0
24.4 0.3 0
24.8 0.3 0
25.2 0.3 0
25.6 0.3 0
26 0.3 0
26.4 0.3 0
26.8 0.3 0
27.2 0.3 0
27.6 0.3 0
28 0.3 0
28.4 0.3 0
28.8 0.3 0
29.2 0.3 0
29.6 0.3 0
30 0.3 0
30.4 0.3 0
30.8 0.3 0
31.2 0.3 0
31.6 0.3 0
32 0.3 0
32.4 0.3 0
32.8 0.3 0
33.2 0.3 0
33.6 0.3 0
34 0.3 0
34.4 0.3 0
34.8 0.3 0
35.2 0.3 0
35.6 0.3 0
36 0.3 0
36.4 0.3 0
36.8 0.3 0
37.2 0.3 0
37.6 0.3 0
38 0.3 0
38.4 0.3 0
38.8 0.3 0
39.2 0.3 0
39.6 0.3 0
40 0.3 0
40.4 0.3 0
0 0.4 0
0.4 0.4 0
0.8 0.4 0
1.2 0.4 0
1.6 0.4 0
2 0.4 0
2.4 0.4 0
2.8 0.4 0
3.2 0.4 0
3.6 0.4 0
4 0.4 0
4.4 0.4 0
4.8 0.4 0
5.2 0.4 0
5.6 0.4 0
6 0.4 0
6.4 0.4 0
6.8 0.4 0
7.2 0.4 0
7.6 0.4 0
8 0.4 0
8.4 0.4 0
8.8 0.4 0
9.2 0.4 0
9.6 0.4 0
10 0.4 0
10.4 0.4 0
10.8 0.4 0
11.2 0.4 0
11.6 0.4 0
12 0.4 0
12.4 0.4 0
12.8 0.4 0
13.2 0.4 0
13.6 0.4 0
14 0.4 0
14.4 0.4 0
14.8 0.4 0
15.2 0.4 0
15.6 0.4 0
16 0.4 0
16.4 0.4 0
16.8 0.4 0
17.2 0.4 0
17.6 0.4 0
18 0.4 0
18.4 0.4 0
18.8 0.4 0
19.2 0.4 0
19.6 0.4 0
20 0.4 0
20.4 0.4 0
20.8 0.4 0
21.2 0.4 0
21.6 0.4 0
22 0.4 0
22.4 0.4 0
22.8 0.4 0
23.2 0.4 0
23.6 0.4 0
24 0.4 0
24.4 0.4 0
24.8 0.4 0
25.2 0.4 0
25.6 0.4 0
26 0.4 0
26.4 0.4 0
26.8 0.4 0
27.2 0.4 0
27.6 0.4 0
28 0.4 0
28.4 0.4 0
28.8 0.4 0
29.2 0.4 0
29.6 0.4 0
30 0.4 0
30.4 0.4 0
30.8 0.4 0
31.2 0.4 0
31.6 0.4 0
32 0.4 0
32.4 0.4 0
32.8 0.4 0
33.2 0.4 0
33.6 0.4 0
34 0.4 0
34.4 0.4 0
34.8 0.4 0
35.2 0.4 0
35.6 0.4 0
36 0.4 0
36.4 0.4 0
36.8 0.4 0
37.2 0.4 0
37.6 0.4 0
38 0.4 0
38.4 0.4 0
38.8 0.4 0
39.2 0.4 0
39.6 0.4 0
40 0.4 0
40.4 0.4 0
0 0.5 0
0.4 0.5 0
0.8 0.5 0
1.2 0.5 0
1.6 0.5 0
2 0.5 0
2.4 0.5 0
2.8 0.5 0
3.2 0.5 0
3.6 0.5 0
4 0.5 0
4.4 0.5 0
4.8 0.5 0
5.2 0.5 0
5.6 0.5 0
6 0.5 0
6.4 0.5 0
6.8 0.5 0
7.2 0.5 0
7.6 0.5 0
8 0.5 0
8.4 0.5 0
8.8 0.5 0
9.2 0.5 0
9.6 0.5 0
10 0.5 0
10.4 0.5 0
10.8 0.5 0
11.2 0.5 0
11.6 0.5 0
12 0.5 0
12.4 0.5 0
12.8 0.5 0
13.2 0.5 0
13.6 0.5 0
14 0.5 0
14.4 0.5 0
14.8 0.5 0
15.2 0.5 0
15.6 0.5 0
16 0.5 0
16.4 0.5 0
16.8 0.5 0
17.2 0.5 0
17.6 0.5 0
18 0.5 0
18.4 0.5 0
18.8 0.5 0
19.2 0.5 0
19.6 0.5 0
20 0.5 0
20.4 0.5 0
20.8 0.5 0
21.2 0.5 0
21.6 0.5 0
22 0.5 0
22.4 0.5 0
22.8 0.5 0
23.2 0.5 0
23.6 0.5 0
24 0.5 0
24.4 0.5 0
24.8 0.5 0
25.2 0.5 0
25.6 0.5 0
26 0.5 0
26.4 0.5 0
26.8 0.5 0
27.2 0.5 0
27.6 0.5 0
28 0.5 0
28.4 0.5 0
28.8 0.5 0
29.2 0.5 0
29.6 0.5 0
30 0.5 0
30.4 0.5 0
30.8 0.5 0
31.2 0.5 0
31.6 0.5 0
32 0.5 0
32.4 0.5 0
32.8 0.5 0
33.2 0.5 0
33.6 0.5 0
34 0.5 0
34.4 0.5 0
34.8 0.5 0
35.2 0.5 0
35.6 0.5 0
36 0.5 0
36.4 0.5 0
36.8 0.5 0
37.2 0.5 0
37.6 0.5 0
38 0.5 0
38.4 0.5 0
38.8 0.5 0
39.2 0.5 0
39.6 0.5 0
40 0.5 0
40.4 0.5 0
0 0.6 0
0.4 0.6 0
0.8 0.6 0
1.2 0.6 0
1.6 0.6 0
2 0.6 0
2.4 0.6 0
2.8 0.6 0
3.2 0.6 0
3.6 0.6 0
4 0.6 0
4.4 0.6 0
4.8 0.6 0
5.2 0.6 0
5.6 0.6 0
6 0.6 0
6.4 0.6 0
6.8 0.6 0
7.2 0.6 0
7.6 0.6 0
8 0.6 0
8.4 0.6 0
8.8 0.6 0
9.2 0.6 0
9.6 0.6 0
10 0.6 0
10.4 0.6 0
10.8 0.6 0
11.2 0.6 0
11.6 0.6 0
12 0.6 0
12.4 0.6 0
12.8 0.6 0
13.2 0.6 0
13.6 0.6 0
14 0.6 0
14.4 0.6 0
14.8 0.6 0
15.2 0.6 0
15.6 0.6 0
16 0.6 0
16.4 0.6 0
16.8 0.6 0
17.2 0.6 0
17.6 0.6 0
18 0.6 0
18.4 0.6 0
18.8 0.6 0
19.2 0.6 0
19.6 0.6 0
20 0.6 0
20.4 0.6 0
20.8 0.6 0
21.2 0.6 0
21.6 0.6 0
22 0.6 0
22.4 0.6 0
22.8 0.6 0
23.2 0.6 0
23.6 0.6 0
24 0.6 0
24.4 0.6 0
24.8 0.6 0
25.2 0.6 0
25.6 0.6 0
26 0.6 0
26.4 0.6 0
26.8 0.6 0
27.2 0.6 0
27.6 0.6 0
28 0.6 0
28.4 0.6 0
28.8 0.6 0
29.2 0.6 0
29.6 0.6 0
30 0.6 0
30.4 0.6 0
30.8 0.6 0
31.2 0.6 0
31.6 0.6 0
32 0.6 0
32.4 0.6 0
32.8 0.6 0
33.2 0.6 0
33.6 0.6 0
34 0.6 0
34.4 0.6 0
34.8 0.6 0
35.2 0.6 0
35.6 0.6 0
36 0.6 0
36.4 0.6 0
36.8 0.6 0
37.2 0.6 0
37.6 0.6 0
38 0.6 0
38.4 0.6 0
38.8 0.6 0
39.2 0.6 0
39.6 0.6 0
40 0.6 0
40.4 0.6 0
0 0.7 0
0.4 0.7 0
0.8 0.7 0
1.2 0.7 0
1.6 0.7 0
2 0.7 0
2.4 0.7 0
2.8 0.7 0
3.2 0.7 0
3.6 0.7 0
4 0.7 0
4.4 0.7 0
4.8 0.7 0
5.2 0.7 0
5.6 0.7 0
6 0.7 0
6.4 0.7 0
6.8 0.7 0
7.2 0.7 0
7.6 0.7 0
8 0.7 0
8.4 0.7 0
8.8 0.7 0
9.2 0.7 0
9.6 0.7 0
10 0.7 0
10.4 0.7 0
10.8 0.7 0
11.2 0.7 0
11.6 0.7 0
12 0.7 0
12.4 0.7 0
12.8 0.7 0
13.2 0.7 0
13.6 0.7 0
14 0.7 0
14.4 0.7 0
14.8 0.7 0
15.2 0.7 0
15.6 0.7 0
16 0.7 0
16.4 0.7 0
16.8 0.7 0
17.2 0.7 0
17.6 0.7 0
18 0.7 0
18.4 0.7 0
18.8 0.7 0
19.2 0.7 0
19.6 0.7 0
20 0.7 0
20.4 0.7 0
20.8 0.7 0
21.2 0.7 0
21.6 0.7 0
22 0.7 0
22.4 0.7 0
22.8 0.7 0
23.2 0.7 0
23.6 0.7 0
24 0.7 0
24.4 0.7 0
24.8 0.7 0
25.2 0.7 0
25.6 0.7 0
26 0.7 0
26.4 0.7 0
26.8 0.7 0
27.2 0.7 0
27.6 0.7 0
28 0.7 0
28.4 0.7 0
28.8 0.7 0
29.2 0.7 0
29.6 0.7 0
30 0.7 0
30.4 0.7 0
30.8 0.7 0
31.2 0.7 0
31.6 0.7 0
32 0.7 0
32.4 0.7 0
32.8 0.7 0
33.2 0.7 0
33.6 0.7 0
34 0.7 0
34.4 0.7 0
34.8 0.7 0
35.2 0.7 0
35.6 0.7 0
36 0.7 0
36.4 0.7 0
36.8 0.7 0
37.2 0.7 0
37.6 0.7 0
38 0.7 0
38.4 0.7 0
38.8 0.7 0
39.2 0.7 0
39.6 0.7 0
40 0.7 0
40.4 0.7 0
0 0.8 0
0.4 0.8 0
0.8 0.8 0
1.2 0.8 0
1.6 0.8 0
2 0.8 0
2.4 0.8 0
2.8 0.8 0
3.2 0.8 0
3.6 0.8 0
4 0.8 0
4.4 0.8 0
4.8 0.8 0
5.2 0.8 0
5.6 0.8 0
6 0.8 0
6.4 0.8 0
6.8 0.8 0
7.2 0.8 0
7.6 0.8 0
8 0.8 0
8.4 0.8 0
8.8 0.8 0
9.2 0.8 0
9.6 0.8 0
10 0.8 0
10.4 0.8 0
10.8 0.8 0
11.2 0.8 0
11.6 0.8 0
12 0.8 0
12.4 0.8 0
12.8 0.8 0
13.2 0.8 0
13.6 0.8 0
14 0.8 0
14.4 0.8 0
14.8 0.8 0
15.2 0.8 0
15.6 0.8 0
16 0.8 0
16.4 0.8 0
16.8 0.8 0
17.2 0.8 0
17.6 0.8 0
18 0.8 0
18.4 0.8 0
18.8 0.8 0
19.2 0.8 0
19.6 0.8 0
20 0.8 0
20.4 0.8 0
20.8 0.8 0
21.2 0.8 0
21.6 0.8 0
22 0.8 0
22.4 0.8 0
22.8 0.8 0
23.2 0.8 0
23.6 0.8 0
24 0.8 0
24.4 0.8 0
24.8 0.8 0
25.2 0.8 0
25.6 0.8 0
26 0.8 0
26.4 0.8 0
26.8 0.8 0
27.2 0.8 0
27.6 0.8 0
28 0.8 0
28.4 0.8 0
28.8 0.8 0
29.2 0.8 0
29.6 0.8 0
30 0.8 0
30.4 0.8 0
30.8 0.8 0
31.2 0.8 0
31.6 0.8 0
32 0.8 0
32.4 0.8 0
32.8 0.8 0
33.2 0.8 0
33.6 0.8 0
34 0.8 0
34.4 0.8 0
34.8 0.8 0
35.2 0.8 0
35.6 0.8 0
36 0.8 0
36.4 0.8 0
36.8 0.8 0
37.2 0.8 0
37.6 0.8 0
38 0.8 0
38.4 0.8 0
38.8 0.8 0
39.2 0.8 0
39.6 0.8 0
40 0.8 0
40.4 0.8 0
0 0.9 0
0.4 0.9 0
0.8 0.9 0
1.2 0.9 0
1.6 0.9 0
2 0.9 0
2.4 0.9 0
2.8 0.9 0
3.2 0.9 0
3.6 0.9 0
4 0.9 0
4.4 0.9 0
4.8 0.9 0
5.2 0.9 0
5.6 0.9 0
6 0.9 0
6.4 0.9 0
6.8 0.9 0
7.2 0.9 0
7.6 0.9 0
8 0.9 0
8.4 0.9 0
8.8 0.9 0
9.2 0.9 0
9.6 0.9 0
10 0.9 0
10.4 0.9 0
10.8 0.9 0
11.2 0.9 0
11.6 0.9 0
12 0.9 0
12.4 0.9 0
12.8 0.9 0
13.2 0.9 0
13.6 0.9 0
14 0.9 0
14.4 0.9 0
14.8 0.9 0
15.2 0.9 0
15.6 0.9 0
16 0.9 0
16.4 0.9 0
16.8 0.9 0
17.2 0.9 0
17.6 0.9 0
18 0.9 0
18.4 0.9 0
18.8 0.9 0
19.2 0.9 0
19.6 0.9 0
20 0.9 0
20.4 0.9 0
20.8 0.9 0
21.2 0.9 0
21.6 0.9 0
22 0.9 0
22.4 0.9 0
22.8 0.9 0
23.2 0.9 0
23.6 0.9 0
24 0.9 0
24.4 0.9 0
24.8 0.9 0
25.2 0.9 0
25.6 0.9 0
26 0.9 0
26.4 0.9 0
26.8 0.9 0
27.2 0.9 0
27.6 0.9 0
28 0.9 0
28.4 0.9 0
28.8 0.9 0
29.2 0.9 0
29.6 0.9 0
30 0.9 0
30.4 0.9 0
30.8 0.9 0
31.2 0.9 0
31.6 0.9 0
32 0.9 0
32.4 0.9 0
32.8 0.9 0
33.2 0.9 0
33.6 0.9 0
34 0.9 0
34.4 0.9 0
34.8 0.9 0
35.2 0.9 0
35.6 0.9 0
36 0.9 0
36.4 0.9 0
36.8 0.9 0
37.2 0.9 0
37.6 0.9 0
38 0.9 0
38.4 0.9 0
38.8 0.9 0
39.2 0.9 0
39.6 0.9 0
40 0.9 0
40.4 0.9 0
0 1 0
0.4 1 0
0.8 1 0
1.2 1 0
1.6 1 0
2 1 0
2.4 1 0
2.8 1 0
3.2 1 0
3.6 1 0
4 1 0
4.4 1 0
4.8 1 0
5.2 1 0
5.6 1 0
6 1 0
6.4 1 0
6.8 1 0
7.2 1 0
7.6 1 0
8 1 0
8.4 1 0
8.8 1 0
9.2 1 0
9.6 1 0
10 1 0
10.4 1 0
10.8 1 0
11.2 1 0
11.6 1 0
12 1 0
12.4 1 0
12.8 1 0
13.2 1 0
13.6 1 0
14 1 0
14.4 1 0
14.8 1 0
15.2 1 0
15.6 1 0
16 1 0
16.4 1 0
16.8 1 0
17.2 1 0
17.6 1 0
18 1 0
18.4 1 0
18.8 1 0
19.2 1 0
19.6 1 0
20 1 0
20.4 1 0
20.8 1 0
21.2 1 0
21.6 1 0
22 1 0
22.4 1 0
22.8 1 0
23.2 1 0
23.6 1 0
24 1 0
24.4 1 0
24.8 1 0
25.2 1 0
25.6 1 0
26 1 0
26.4 1 0
26.8 1 0
27.2 1 0
27.6 1 0
28 1 0
28.4 1 0
28.8 1 0
29.2 1 0
29.6 1 0
30 1 0
30.4 1 0
30.8 1 0
31.2 1 0
31.6 1 0
32 1 0
32.4 1 0
32.8 1 0
33.2 1 0
33.6 1 0
34 1 0
34.4 1 0
34.8 1 0
35.2 1 0
35.6 1 0
36 1 0
36.4 1 0
36.8 1 0
37.2 1 0
37.6 1 0
38 1 0
38.4 1 0
38.8 1 0
39.2 1 0
39.6 1 0
40 1 0
40.4 1 0
0 1.1 0
0.4 1.1 0
0.8 1.1 0
1.2 1.1 0
1.6 1.1 0
2 1.1 0
2.4 1.1 0
2.8 1.1 0
3.2 1.1 0
3.6 1.1 0
4 1.1 0
4.4 1.1 0
4.8 1.1 0
5.2 1.1 0
5.6 1.1 0
6 1.1 0
6.4 1.1 0
6.8 1.1 0
7.2 1.1 0
7.6 1.1 0
8 1.1 0
8.4 1.1 0
8.8 1.1 0
9.2 1.1 0
9.6 1.1 0
10 1.1 0
10.4 1.1 0
10.8 1.1 0
11.2 1.1 0
11.6 1.1 0
12 1.1 0
12.4 1.1 0
12.8 1.1 0
13.2 1.1 0
13.6 1.1 0
14 1.1 0
14.4 1.1 0
14.8 1.1 0
15.2 1.1 0
15.6 1.1 0
16 1.1 0
16.4 1.1 0
16.8 1.1 0
17.2 1.1 0
17.6 1.1 0
18 1.1 0
18.4 1.1 0
18.8 1.1 0
19.2 1.1 0
19.6 1.1 0
20 1.1 0
20.4 1.1 0
20.8 1.1 0
21.2 1.1 0
21.6 1.1 0
22 1.1 0
22.4 1.1 0
22.8 1.1 0
23.2 1.1 0
23.6 1.1 0
24 1.1 0
24.4 1.1 0
24.8 1.1 0
25.2 1.1 0
25.6 1.1 0
26 1.1 0
26.4 1.1 0
26.8 1.1 0
27.2 1.1 0
27.6 1.1 0
28 1.1 0
28.4 1.1 0
28.8 1.1 0
29.2 1.1 0
29.6 1.1 0
30 1.1 0
30.4 1.1 0
30.8 1.1 0
31.2 1.1 0
31.6 1.1 0
32 1.1 0
32.4 1.1 0
32.8 1.1 0
33.2 1.1 0
33.6 1.1 0
34 1.1 0
34.4 1.1 0
34.8 1.1 0
35.2 1.1 0
35.6 1.1 0
36 1.1 0
36.4 1.1 0
36.8 1.1 0
37.2 1.1 0
37.6 1.1 0
38 1.1 0
38.4 1.1 0
38.8 1.1 0
39.2 1.1 0
39.6 1.1 0
40 1.1 0
40.4 1.1 0

POINT_DATA 1224

SCALARS u double
LOOKUP_TABLE default
-1.15742
-0.842584
-0.620823
-0.489988
-0.418731
-0.380052
-0.357704
-0.34362
-0.334164
-0.3277
-0.32338
-0.320632
-0.318994
-0.318086
-0.317622
-0.317403
-0.317309
-0.317272
-0.31726
-0.317256
-0.317256
-0.317256
-0.317256
-0.317256
-0.317256
-0.317256
-0.317256
-0.317256
-0.317256
-0.317256
-0.317256
-0.317257
-0.317257
-0.317257
-0.317257
-0.317257
-0.317257
-0.317257
-0.317257
-0.317257
-0.317257
-0.317257
-0.317257
-0.317257
-0.317257
-0.317257
-0.317257
-0.317257
-0.317257
-0.317257
-0.317257
-0.317257
-0.317257
-0.317257
-0.317257
-0.317257
-0.317257
-0.317257
-0.317257
-0.317257
-0.317257
-0.317257
-0.317257
-0.317258
-0.317258
-0.317258
-0.317258
-0.317258
-0.317258
-0.317258
-0.317258
-0.317258
-0.317258
-0.317258
-0.317258
-0.317258
-0.317258
-0.317258
-0.317258
-0.317258
-0.317258
-0.317258
-0.317258
-0.317258
-0.317258
-0.317258
-0.317258
-0.317258
-0.317258
-0.317258
-0.317258
-0.317258
-0.317258
-0.317258
-0.317258
-0.317259
-0.317258
-0.317265
-0.317257
-0.317314
-0.317314
-1
1.15742
0.842584
0.620823
0.489988
0.418731
0.380052
0.357704
0.34362
0.334164
0.3277
0.32338
0.320632
0.318994
0.318086
0.317622
0.317403
0.317309
0.317272
0.31726
0.317256
0.317256
0.317256
0.317256
0.317256
0.317256
0.317256
0.317256
0.317256
0.317256
0.317256
0.317256
0.317257
0.317257
0.317257
0.317257
0.317257
0.317257
0.317257
0.317257
0.317257
0.317257
0.317257
0.317257
0.317257
0.317257
0.317257
0.317257
0.317257
0.317257
0.317257
0.317257
0.317257
0.317257
0.317257
0.317257
0.317257
0.317257
0.317257
0.317257
0.317257
0.317257
0.317257
0.317257
0.317258
0.317258
0.317258
0.317258
0.317258
0.317258
0.317258
0.317258
0.317258
0.317258
0.317258
0.317258
0.317258
0.317258
0.317258
0.317258
0.317258
0.317258
0.317258
0.317258
0.317258
0.317258
0.317258
0.317258
0.317258
0.317258
0.317258
0.317258
0.317258
0.317258
0.317258
0.317258
0.317259
0.317258
0.317265
0.317257
0.317314
0.317314
1
0.976269
1.02373
1.00214
0.963816
0.926535
0.895109
0.869993
0.850466
0.835701
0.824966
0.817559
0.812762
0.809867
0.808249
0.807414
0.807018
0.806847
0.80678
0.806758
0.806752
0.806751
0.806751
0.806751
0.806752
0.806752
0.806752
0.806752
0.806752
0.806752
0.806752
0.806752
0.806753
0.806753
0.806753
0.806753
0.806753
0.806753
0.806753
0.806753
0.806753
0.806753
0.806753
0.806753
0.806754
0.806754
0.806754
0.806754
0.806754
0.806754
0.806754
0.806754
0.806754
0.806754
0.806754
0.806754
0.806754
0.806755
0.806755
0.806755
0.806755
0.806755
0.806755
0.806755
0.806755
0.806755
0.806755
0.806755
0.806755
0.806755
0.806755
0.806756
0.806756
0.806756
0.806756
0.806756
0.806756
0.806756
0.806756
0.806756
0.806756
0.806756
0.806756
0.806756
0.806756
0.806756
0.806756
0.806756
0.806756
0.806756
0.806757
0.806757
0.806757
0.806757
0.806757
0.806757
0.806757
0.806756
0.806764
0.80675
0.806913
0.806913
1
0.95324
1.04676
1.10995
1.14211
1.15506
1.158
1.15635
1.15292
1.14911
1.14563
1.14282
1.14074
1.13933
1.13846
1.13797
1.13771
1.13759
1.13753
1.13751
1.13751
1.1375
1.1375
1.13751
1.13751
1.13751
1.13751
1.13751
1.13751
1.13751
1.13751
1.13751
1.13751
1.13751
1.13751
1.13751
1.13751
1.13751
1.13751
1.13751
1.13751
1.13751
1.13751
1.13751
1.13751
1.13751
1.13751
1.13751
1.13751
1.13751
1.13751
1.13751
1.13751
1.13751
1.13751
1.13751
1.13751
1.13751
1.13751
1.13751
1.13751
1.13751
1.13751
1.13751
1.13751
1.13751
1.13751
1.13751
1.13751
1.13751
1.13751
1.13751
1.13751
1.13751
1.13751
1.13751
1.13751
1.13751
1.13751
1.13751
1.13751
1.13751
1.13751
1.13751
1.13751
1.13751
1.13751
1.13751
1.13751
1.13751
1.13751
1.13751
1.13751
1.13751
1.13751
1.13751
1.13751
1.13751
1.13751
1.1375
1.13759
1.13759
1
0.95519
1.04481
1.13263
1.19618
1.23829
1.26624
1.28554
1.29934
1.30929
1.31632
1.32108
1.3241
1.32589
1.32687
1.32736
1.32759
1.32768
1.32772
1.32773
1.32773
1.32773
1.32773
1.32773
1.32773
1.32773
1.32773
1.32773
1.32773
1.32773
1.32773
1.32773
1.32773
1.32773
1.32773
1.32773
1.32773
1.32773
1.32773
1.32773
1.32773
1.32773
1.32773
1.32773
1.32773
1.32773
1.32773
1.32773
1.32773
1.32773
1.32773
1.32773
1.32773
1.32773
1.32773
1.32773
1.32773
1.32773
1.32773
1.32773
1.32773
1.32773
1.32773
1.32773
1.32773
1.32773
1.32773
1.32773
1.32773
1.32773
1.32773
1.32773
1.32773
1.32773
1.32773
1.32773
1.32773
1.32773
1.32773
1.32773
1.32773
1.32773
1.32773
1.32773
1.32773
1.32773
1.32773
1.32773
1.32773
1.32773
1.32773
1.32773
1.32773
1.32773
1.32773
1.32773
1.32773
1.32773
1.32773
1.32774
1.32765
1.32765
1
0.957885
1.04212
1.13446
1.2079
1.26139
1.30059
1.33041
1.35366
1.37174
1.38538
1.39517
1.40177
1.40592
1.40834
1.40964
1.41029
1.41058
1.4107
1.41075
1.41076
1.41077
1.41077
1.41077
1.41076
1.41076
1.41076
1.41076
1.41076
1.41076
1.41076
1.41076
1.41076
1.41076
1.41076
1.41076
1.41076
1.41076
1.41076
1.41076
1.41077
1.41077
1.41077
1.41077
1.41077
1.41077
1.41077
1.41077
1.41077
1.41077
1.41077
1.41077
1.41077
1.41077
1.41077
1.41077
1.41077
1.41077
1.41077
1.41077
1.41077
1.41077
1.41077
1.41077
1.41077
1.41077
1.41077
1.41077
1.41077
1.41077
1.41077
1.41077
1.41077
1.41077
1.41077
1.41077
1.41077
1.41077
1.41077
1.41077
1.41077
1.41077
1.41077
1.41077
1.41077
1.41077
1.41077
1.41077
1.41077
1.41077
1.41077
1.41077
1.41077
1.41077
1.41077
1.41077
1.41077
1.41077
1.41076
1.41078
1.41057
1.41057
1
0.957885
1.04212
1.13446
1.2079
1.26139
1.30059
1.33041
1.35366
1.37174
1.38538
1.39517
1.40177
1.40592
1.40834
1.40964
1.41029
1.41058
1.4107
1.41075
1.41076
1.41077
1.41077
1.41076
1.41076
1.41076
1.41076
1.41076
1.41076
1.41076
1.41076
1.41076
1.41076
1.41076
1.41076
1.41076
1.41076
1.41076
1.41076
1.41076
1.41076
1.41076
1.41076
1.41077
1.41077
1.41077
1.41077
1.41077
1.41077
1.41077
1.41077
1.41077
1.41077
1.41077
1.41077
1.41077
1.41077
1.41077
1.41077
1.41077
1.41077
1.41077
1.41077
1.41077
1.41077
1.41077
1.41077
1.41077
1.41077
1.41077
1.41077
1.41077
1.41077
1.41077
1.41077
1.41077
1.41077
1.41077
1.41077
1.41077
1.41077
1.41077
1.41077
1.41077
1.41077
1.41077
1.41077
1.41077
1.41077
1.41077
1.41077
1.41077
1.41077
1.41077
1.41077
1.41077
1.41077
1.41077
1.41076
1.41078
1.41057
1.41057
1
0.955191
1.04481
1.13263
1.19618
1.23829
1.26624
1.28554
1.29934
1.30929
1.31632
1.32108
1.3241
1.32589
1.32687
1.32736
1.32759
1.32768
1.32772
1.32773
1.32773
1.32773
1.32773
1.32773
1.32773
1.32773
1.32773
1.32773
1.32773
1.32773
1.32773
1.32773
1.32773
1.32773
1.32773
1.32773
1.32773
1.32773
1.32773
1.32773
1.32773
1.32773
1.32773
1.32773
1.32773
1.32773
1.32773
1.32773
1.32773
1.32773
1.32773
1.32773
1.32773
1.32773
1.32773
1.32773
1.32773
1.32773
1.32773
1.32773
1.32773
1.32773
1.32773
1.32773
1.32773
1.32773
1.32773
1.32773
1.32773
1.32773
1.32773
1.32773
1.32773
1.32773
1.32773
1.32773
1.32773
1.32773
1.32773
1.32773
1.32773
1.32773
1.32773
1.32773
1.32773
1.32773
1.32773
1.32773
1.32773
1.32773
1.32773
1.32773
1.32773
1.32773
1.32773
1.32773
1.32773
1.32773
1.32773
1.32774
1.32765
1.32765
1
0.95324
1.04676
1.10995
1.14211
1.15506
1.158
1.15635
1.15292
1.14911
1.14563
1.14282
1.14074
1.13933
1.13846
1.13797
1.13771
1.13759
1.13753
1.13751
1.13751
1.1375
1.1375
1.13751
1.13751
1.13751
1.13751
1.13751
1.13751
1.13751
1.13751
1.13751
1.13751
1.13751
1.13751
1.13751
1.13751
1.13751
1.13751
1.13751
1.13751
1.13751
1.13751
1.13751
1.13751
1.13751
1.13751
1.13751
1.13751
1.13751
1.13751
1.13751
1.13751
1.13751
1.13751
1.13751
1.13751
1.13751
1.13751
1.13751
1.13751
1.13751
1.13751
1.13751
1.13751
1.13751
1.13751
1.13751
1.13751
1.13751
1.13751
1.13751
1.13751
1.13751
1.13751
1.13751
1.13751
1.13751
1.13751
1.13751
1.13751
1.13751
1.13751
1.13751
1.13751
1.13751
1.13751
1.13751
1.13751
1.13751
1.13751
1.13751
1.13751
1.13751
1.13751
1.13751
1.13751
1.13751
1.13751
1.1375
1.13759
1.13759
1
0.976269
1.02373
1.00214
0.963817
0.926536
0.89511
0.869994
0.850467
0.835702
0.824967
0.81756
0.812762
0.809868
0.808249
0.807414
0.807018
0.806847
0.806781
0.806758
0.806752
0.806751
0.806751
0.806752
0.806752
0.806752
0.806752
0.806752
0.806752
0.806752
0.806752
0.806753
0.806753
0.806753
0.806753
0.806753
0.806753
0.806753
0.806753
0.806753
0.806753
0.806753
0.806753
0.806753
0.806753
0.806753
0.806753
0.806754
0.806754
0.806754
0.806754
0.806754
0.806754
0.806754
0.806754
0.806754
0.806754
0.806754
0.806754
0.806754
0.806754
0.806754
0.806754
0.806754
0.806754
0.806754
0.806754
0.806755
0.806755
0.806755
0.806755
0.806755
0.806755
0.806755
0.806755
0.806755
0.806755
0.806755
0.806755
0.806755
0.806755
0.806755
0.806755
0.806755
0.806755
0.806755
0.806755
0.806755
0.806755
0.806755
0.806755
0.806755
0.806755
0.806755
0.806756
0.806755
0.806756
0.806755
0.806763
0.806749
0.806912
0.806912
1
1.15742
0.842585
0.620824
0.489988
0.418732
0.380053
0.357705
0.343621
0.334164
0.3277
0.32338
0.320632
0.318994
0.318086
0.317622
0.317403
0.317309
0.317273
0.31726
0.317257
0.317256
0.317256
0.317256
0.317256
0.317257
0.317257
0.317257
0.317257
0.317257
0.317257
0.317257
0.317257
0.317257
0.317257
0.317257
0.317257
0.317257
0.317257
0.317257
0.317257
0.317257
0.317257
0.317257
0.317257
0.317257
0.317257
0.317257
0.317257
0.317257
0.317257
0.317257
0.317257
0.317257
0.317257
0.317257
0.317257
0.317257
0.317257
0.317257
0.317257
0.317257
0.317257
0.317257
0.317257
0.317257
0.317257
0.317257
0.317257
0.317257
0.317257
0.317257
0.317257
0.317257
0.317258
0.317258
0.317258
0.317258
0.317258
0.317258
0.317258
0.317258
0.317258
0.317258
0.317258
0.317258
0.317258
0.317258
0.317258
0.317258
0.317258
0.317258
0.317258
0.317258
0.317258
0.317258
0.317258
0.317257
0.317264
0.317257
0.317313
0.317313
1
-1.15742
-0.842585
-0.620824
-0.489988
-0.418732
-0.380053
-0.357705
-0.343621
-0.334164
-0.3277
-0.32338
-0.320632
-0.318994
-0.318086
-0.317622
-0.317403
-0.317309
-0.317273
-0.31726
-0.317257
-0.317256
-0.317256
-0.317256
-0.317256
-0.317257
-0.317257
-0.317257
-0.317257
-0.317257
-0.317257
-0.317257
-0.317257
-0.317257
-0.317257
-0.317257
-0.317257
-0.317257
-0.317257
-0.317257
-0.317257
-0.317257
-0.317257
-0.317257
-0.317257
-0.317257
-0.317257
-0.317257
-0.317257
-0.317257
-0.317257
-0.317257
-0.317257
-0.317257
-0.317257
-0.317257
-0.317257
-0.317257
-0.317257
-0.317257
-0.317257
-0.317257
-0.317257
-0.317257
-0.317257
-0.317257
-0.317257
-0.317257
-0.317257
-0.317257
-0.317257
-0.317257
-0.317257
-0.317257
-0.317258
-0.317258
-0.317258
-0.317258
-0.317258
-0.317258
-0.317258
-0.317258
-0.317258
-0.317258
-0.317258
-0.317258
-0.317258
-0.317258
-0.317258
-0.317258
-0.317258
-0.317258
-0.317258
-0.317258
-0.317258
-0.317258
-0.317258
-0.317257
-0.317264
-0.317257
-0.317313
-0.317313
-1
