# vtk DataFile Version 2.0
FlowField
ASCII
DATASET STRUCTURED_GRID
DIMENSIONS 402 1 22 
POINTS 8844 float
0 0 0
0.3 0 0
0.6 0 0
0.9 0 0
1.2 0 0
1.5 0 0
1.8 0 0
2.1 0 0
2.4 0 0
2.7 0 0
3 0 0
3.3 0 0
3.6 0 0
3.9 0 0
4.2 0 0
4.5 0 0
4.8 0 0
5.1 0 0
5.4 0 0
5.7 0 0
6 0 0
6.3 0 0
6.6 0 0
6.9 0 0
7.2 0 0
7.5 0 0
7.8 0 0
8.1 0 0
8.4 0 0
8.7 0 0
9 0 0
9.3 0 0
9.6 0 0
9.9 0 0
10.2 0 0
10.5 0 0
10.8 0 0
11.1 0 0
11.4 0 0
11.7 0 0
12 0 0
12.3 0 0
12.6 0 0
12.9 0 0
13.2 0 0
13.5 0 0
13.8 0 0
14.1 0 0
14.4 0 0
14.7 0 0
15 0 0
15.3 0 0
15.6 0 0
15.9 0 0
16.2 0 0
16.5 0 0
16.8 0 0
17.1 0 0
17.4 0 0
17.7 0 0
18 0 0
18.3 0 0
18.6 0 0
18.9 0 0
19.2 0 0
19.5 0 0
19.8 0 0
20.1 0 0
20.4 0 0
20.7 0 0
21 0 0
21.3 0 0
21.6 0 0
21.9 0 0
22.2 0 0
22.5 0 0
22.8 0 0
23.1 0 0
23.4 0 0
23.7 0 0
24 0 0
24.3 0 0
24.6 0 0
24.9 0 0
25.2 0 0
25.5 0 0
25.8 0 0
26.1 0 0
26.4 0 0
26.7 0 0
27 0 0
27.3 0 0
27.6 0 0
27.9 0 0
28.2 0 0
28.5 0 0
28.8 0 0
29.1 0 0
29.4 0 0
29.7 0 0
30 0 0
30.3 0 0
30.6 0 0
30.9 0 0
31.2 0 0
31.5 0 0
31.8 0 0
32.1 0 0
32.4 0 0
32.7 0 0
33 0 0
33.3 0 0
33.6 0 0
33.9 0 0
34.2 0 0
34.5 0 0
34.8 0 0
35.1 0 0
35.4 0 0
35.7 0 0
36 0 0
36.3 0 0
36.6 0 0
36.9 0 0
37.2 0 0
37.5 0 0
37.8 0 0
38.1 0 0
38.4 0 0
38.7 0 0
39 0 0
39.3 0 0
39.6 0 0
39.9 0 0
40.2 0 0
40.5 0 0
40.8 0 0
41.1 0 0
41.4 0 0
41.7 0 0
42 0 0
42.3 0 0
42.6 0 0
42.9 0 0
43.2 0 0
43.5 0 0
43.8 0 0
44.1 0 0
44.4 0 0
44.7 0 0
45 0 0
45.3 0 0
45.6 0 0
45.9 0 0
46.2 0 0
46.5 0 0
46.8 0 0
47.1 0 0
47.4 0 0
47.7 0 0
48 0 0
48.3 0 0
48.6 0 0
48.9 0 0
49.2 0 0
49.5 0 0
49.8 0 0
50.1 0 0
50.4 0 0
50.7 0 0
51 0 0
51.3 0 0
51.6 0 0
51.9 0 0
52.2 0 0
52.5 0 0
52.8 0 0
53.1 0 0
53.4 0 0
53.7 0 0
54 0 0
54.3 0 0
54.6 0 0
54.9 0 0
55.2 0 0
55.5 0 0
55.8 0 0
56.1 0 0
56.4 0 0
56.7 0 0
57 0 0
57.3 0 0
57.6 0 0
57.9 0 0
58.2 0 0
58.5 0 0
58.8 0 0
59.1 0 0
59.4 0 0
59.7 0 0
60 0 0
60.3 0 0
60.6 0 0
60.9 0 0
61.2 0 0
61.5 0 0
61.8 0 0
62.1 0 0
62.4 0 0
62.7 0 0
63 0 0
63.3 0 0
63.6 0 0
63.9 0 0
64.2 0 0
64.5 0 0
64.8 0 0
65.1 0 0
65.4 0 0
65.7 0 0
66 0 0
66.3 0 0
66.6 0 0
66.9 0 0
67.2 0 0
67.5 0 0
67.8 0 0
68.1 0 0
68.4 0 0
68.7 0 0
69 0 0
69.3 0 0
69.6 0 0
69.9 0 0
70.2 0 0
70.5 0 0
70.8 0 0
71.1 0 0
71.4 0 0
71.7 0 0
72 0 0
72.3 0 0
72.6 0 0
72.9 0 0
73.2 0 0
73.5 0 0
73.8 0 0
74.1 0 0
74.4 0 0
74.7 0 0
75 0 0
75.3 0 0
75.6 0 0
75.9 0 0
76.2 0 0
76.5 0 0
76.8 0 0
77.1 0 0
77.4 0 0
77.7 0 0
78 0 0
78.3 0 0
78.6 0 0
78.9 0 0
79.2 0 0
79.5 0 0
79.8 0 0
80.1 0 0
80.4 0 0
80.7 0 0
81 0 0
81.3 0 0
81.6 0 0
81.9 0 0
82.2 0 0
82.5 0 0
82.8 0 0
83.1 0 0
83.4 0 0
83.7 0 0
84 0 0
84.3 0 0
84.6 0 0
84.9 0 0
85.2 0 0
85.5 0 0
85.8 0 0
86.1 0 0
86.4 0 0
86.7 0 0
87 0 0
87.3 0 0
87.6 0 0
87.9 0 0
88.2 0 0
88.5 0 0
88.8 0 0
89.1 0 0
89.4 0 0
89.7 0 0
90 0 0
90.3 0 0
90.6 0 0
90.9 0 0
91.2 0 0
91.5 0 0
91.8 0 0
92.1 0 0
92.4 0 0
92.7 0 0
93 0 0
93.3 0 0
93.6 0 0
93.9 0 0
94.2 0 0
94.5 0 0
94.8 0 0
95.1 0 0
95.4 0 0
95.7 0 0
96 0 0
96.3 0 0
96.6 0 0
96.9 0 0
97.2 0 0
97.5 0 0
97.8 0 0
98.1 0 0
98.4 0 0
98.7 0 0
99 0 0
99.3 0 0
99.6 0 0
99.9 0 0
100.2 0 0
100.5 0 0
100.8 0 0
101.1 0 0
101.4 0 0
101.7 0 0
102 0 0
102.3 0 0
102.6 0 0
102.9 0 0
103.2 0 0
103.5 0 0
103.8 0 0
104.1 0 0
104.4 0 0
104.7 0 0
105 0 0
105.3 0 0
105.6 0 0
105.9 0 0
106.2 0 0
106.5 0 0
106.8 0 0
107.1 0 0
107.4 0 0
107.7 0 0
108 0 0
108.3 0 0
108.6 0 0
108.9 0 0
109.2 0 0
109.5 0 0
109.8 0 0
110.1 0 0
110.4 0 0
110.7 0 0
111 0 0
111.3 0 0
111.6 0 0
111.9 0 0
112.2 0 0
112.5 0 0
112.8 0 0
113.1 0 0
113.4 0 0
113.7 0 0
114 0 0
114.3 0 0
114.6 0 0
114.9 0 0
115.2 0 0
115.5 0 0
115.8 0 0
116.1 0 0
116.4 0 0
116.7 0 0
117 0 0
117.3 0 0
117.6 0 0
117.9 0 0
118.2 0 0
118.5 0 0
118.8 0 0
119.1 0 0
119.4 0 0
119.7 0 0
120 0 0
120.3 0 0
0 0.1 0
0.3 0.1 0
0.6 0.1 0
0.9 0.1 0
1.2 0.1 0
1.5 0.1 0
1.8 0.1 0
2.1 0.1 0
2.4 0.1 0
2.7 0.1 0
3 0.1 0
3.3 0.1 0
3.6 0.1 0
3.9 0.1 0
4.2 0.1 0
4.5 0.1 0
4.8 0.1 0
5.1 0.1 0
5.4 0.1 0
5.7 0.1 0
6 0.1 0
6.3 0.1 0
6.6 0.1 0
6.9 0.1 0
7.2 0.1 0
7.5 0.1 0
7.8 0.1 0
8.1 0.1 0
8.4 0.1 0
8.7 0.1 0
9 0.1 0
9.3 0.1 0
9.6 0.1 0
9.9 0.1 0
10.2 0.1 0
10.5 0.1 0
10.8 0.1 0
11.1 0.1 0
11.4 0.1 0
11.7 0.1 0
12 0.1 0
12.3 0.1 0
12.6 0.1 0
12.9 0.1 0
13.2 0.1 0
13.5 0.1 0
13.8 0.1 0
14.1 0.1 0
14.4 0.1 0
14.7 0.1 0
15 0.1 0
15.3 0.1 0
15.6 0.1 0
15.9 0.1 0
16.2 0.1 0
16.5 0.1 0
16.8 0.1 0
17.1 0.1 0
17.4 0.1 0
17.7 0.1 0
18 0.1 0
18.3 0.1 0
18.6 0.1 0
18.9 0.1 0
19.2 0.1 0
19.5 0.1 0
19.8 0.1 0
20.1 0.1 0
20.4 0.1 0
20.7 0.1 0
21 0.1 0
21.3 0.1 0
21.6 0.1 0
21.9 0.1 0
22.2 0.1 0
22.5 0.1 0
22.8 0.1 0
23.1 0.1 0
23.4 0.1 0
23.7 0.1 0
24 0.1 0
24.3 0.1 0
24.6 0.1 0
24.9 0.1 0
25.2 0.1 0
25.5 0.1 0
25.8 0.1 0
26.1 0.1 0
26.4 0.1 0
26.7 0.1 0
27 0.1 0
27.3 0.1 0
27.6 0.1 0
27.9 0.1 0
28.2 0.1 0
28.5 0.1 0
28.8 0.1 0
29.1 0.1 0
29.4 0.1 0
29.7 0.1 0
30 0.1 0
30.3 0.1 0
30.6 0.1 0
30.9 0.1 0
31.2 0.1 0
31.5 0.1 0
31.8 0.1 0
32.1 0.1 0
32.4 0.1 0
32.7 0.1 0
33 0.1 0
33.3 0.1 0
33.6 0.1 0
33.9 0.1 0
34.2 0.1 0
34.5 0.1 0
34.8 0.1 0
35.1 0.1 0
35.4 0.1 0
35.7 0.1 0
36 0.1 0
36.3 0.1 0
36.6 0.1 0
36.9 0.1 0
37.2 0.1 0
37.5 0.1 0
37.8 0.1 0
38.1 0.1 0
38.4 0.1 0
38.7 0.1 0
39 0.1 0
39.3 0.1 0
39.6 0.1 0
39.9 0.1 0
40.2 0.1 0
40.5 0.1 0
40.8 0.1 0
41.1 0.1 0
41.4 0.1 0
41.7 0.1 0
42 0.1 0
42.3 0.1 0
42.6 0.1 0
42.9 0.1 0
43.2 0.1 0
43.5 0.1 0
43.8 0.1 0
44.1 0.1 0
44.4 0.1 0
44.7 0.1 0
45 0.1 0
45.3 0.1 0
45.6 0.1 0
45.9 0.1 0
46.2 0.1 0
46.5 0.1 0
46.8 0.1 0
47.1 0.1 0
47.4 0.1 0
47.7 0.1 0
48 0.1 0
48.3 0.1 0
48.6 0.1 0
48.9 0.1 0
49.2 0.1 0
49.5 0.1 0
49.8 0.1 0
50.1 0.1 0
50.4 0.1 0
50.7 0.1 0
51 0.1 0
51.3 0.1 0
51.6 0.1 0
51.9 0.1 0
52.2 0.1 0
52.5 0.1 0
52.8 0.1 0
53.1 0.1 0
53.4 0.1 0
53.7 0.1 0
54 0.1 0
54.3 0.1 0
54.6 0.1 0
54.9 0.1 0
55.2 0.1 0
55.5 0.1 0
55.8 0.1 0
56.1 0.1 0
56.4 0.1 0
56.7 0.1 0
57 0.1 0
57.3 0.1 0
57.6 0.1 0
57.9 0.1 0
58.2 0.1 0
58.5 0.1 0
58.8 0.1 0
59.1 0.1 0
59.4 0.1 0
59.7 0.1 0
60 0.1 0
60.3 0.1 0
60.6 0.1 0
60.9 0.1 0
61.2 0.1 0
61.5 0.1 0
61.8 0.1 0
62.1 0.1 0
62.4 0.1 0
62.7 0.1 0
63 0.1 0
63.3 0.1 0
63.6 0.1 0
63.9 0.1 0
64.2 0.1 0
64.5 0.1 0
64.8 0.1 0
65.1 0.1 0
65.4 0.1 0
65.7 0.1 0
66 0.1 0
66.3 0.1 0
66.6 0.1 0
66.9 0.1 0
67.2 0.1 0
67.5 0.1 0
67.8 0.1 0
68.1 0.1 0
68.4 0.1 0
68.7 0.1 0
69 0.1 0
69.3 0.1 0
69.6 0.1 0
69.9 0.1 0
70.2 0.1 0
70.5 0.1 0
70.8 0.1 0
71.1 0.1 0
71.4 0.1 0
71.7 0.1 0
72 0.1 0
72.3 0.1 0
72.6 0.1 0
72.9 0.1 0
73.2 0.1 0
73.5 0.1 0
73.8 0.1 0
74.1 0.1 0
74.4 0.1 0
74.7 0.1 0
75 0.1 0
75.3 0.1 0
75.6 0.1 0
75.9 0.1 0
76.2 0.1 0
76.5 0.1 0
76.8 0.1 0
77.1 0.1 0
77.4 0.1 0
77.7 0.1 0
78 0.1 0
78.3 0.1 0
78.6 0.1 0
78.9 0.1 0
79.2 0.1 0
79.5 0.1 0
79.8 0.1 0
80.1 0.1 0
80.4 0.1 0
80.7 0.1 0
81 0.1 0
81.3 0.1 0
81.6 0.1 0
81.9 0.1 0
82.2 0.1 0
82.5 0.1 0
82.8 0.1 0
83.1 0.1 0
83.4 0.1 0
83.7 0.1 0
84 0.1 0
84.3 0.1 0
84.6 0.1 0
84.9 0.1 0
85.2 0.1 0
85.5 0.1 0
85.8 0.1 0
86.1 0.1 0
86.4 0.1 0
86.7 0.1 0
87 0.1 0
87.3 0.1 0
87.6 0.1 0
87.9 0.1 0
88.2 0.1 0
88.5 0.1 0
88.8 0.1 0
89.1 0.1 0
89.4 0.1 0
89.7 0.1 0
90 0.1 0
90.3 0.1 0
90.6 0.1 0
90.9 0.1 0
91.2 0.1 0
91.5 0.1 0
91.8 0.1 0
92.1 0.1 0
92.4 0.1 0
92.7 0.1 0
93 0.1 0
93.3 0.1 0
93.6 0.1 0
93.9 0.1 0
94.2 0.1 0
94.5 0.1 0
94.8 0.1 0
95.1 0.1 0
95.4 0.1 0
95.7 0.1 0
96 0.1 0
96.3 0.1 0
96.6 0.1 0
96.9 0.1 0
97.2 0.1 0
97.5 0.1 0
97.8 0.1 0
98.1 0.1 0
98.4 0.1 0
98.7 0.1 0
99 0.1 0
99.3 0.1 0
99.6 0.1 0
99.9 0.1 0
100.2 0.1 0
100.5 0.1 0
100.8 0.1 0
101.1 0.1 0
101.4 0.1 0
101.7 0.1 0
102 0.1 0
102.3 0.1 0
102.6 0.1 0
102.9 0.1 0
103.2 0.1 0
103.5 0.1 0
103.8 0.1 0
104.1 0.1 0
104.4 0.1 0
104.7 0.1 0
105 0.1 0
105.3 0.1 0
105.6 0.1 0
105.9 0.1 0
106.2 0.1 0
106.5 0.1 0
106.8 0.1 0
107.1 0.1 0
107.4 0.1 0
107.7 0.1 0
108 0.1 0
108.3 0.1 0
108.6 0.1 0
108.9 0.1 0
109.2 0.1 0
109.5 0.1 0
109.8 0.1 0
110.1 0.1 0
110.4 0.1 0
110.7 0.1 0
111 0.1 0
111.3 0.1 0
111.6 0.1 0
111.9 0.1 0
112.2 0.1 0
112.5 0.1 0
112.8 0.1 0
113.1 0.1 0
113.4 0.1 0
113.7 0.1 0
114 0.1 0
114.3 0.1 0
114.6 0.1 0
114.9 0.1 0
115.2 0.1 0
115.5 0.1 0
115.8 0.1 0
116.1 0.1 0
116.4 0.1 0
116.7 0.1 0
117 0.1 0
117.3 0.1 0
117.6 0.1 0
117.9 0.1 0
118.2 0.1 0
118.5 0.1 0
118.8 0.1 0
119.1 0.1 0
119.4 0.1 0
119.7 0.1 0
120 0.1 0
120.3 0.1 0
0 0.2 0
0.3 0.2 0
0.6 0.2 0
0.9 0.2 0
1.2 0.2 0
1.5 0.2 0
1.8 0.2 0
2.1 0.2 0
2.4 0.2 0
2.7 0.2 0
3 0.2 0
3.3 0.2 0
3.6 0.2 0
3.9 0.2 0
4.2 0.2 0
4.5 0.2 0
4.8 0.2 0
5.1 0.2 0
5.4 0.2 0
5.7 0.2 0
6 0.2 0
6.3 0.2 0
6.6 0.2 0
6.9 0.2 0
7.2 0.2 0
7.5 0.2 0
7.8 0.2 0
8.1 0.2 0
8.4 0.2 0
8.7 0.2 0
9 0.2 0
9.3 0.2 0
9.6 0.2 0
9.9 0.2 0
10.2 0.2 0
10.5 0.2 0
10.8 0.2 0
11.1 0.2 0
11.4 0.2 0
11.7 0.2 0
12 0.2 0
12.3 0.2 0
12.6 0.2 0
12.9 0.2 0
13.2 0.2 0
13.5 0.2 0
13.8 0.2 0
14.1 0.2 0
14.4 0.2 0
14.7 0.2 0
15 0.2 0
15.3 0.2 0
15.6 0.2 0
15.9 0.2 0
16.2 0.2 0
16.5 0.2 0
16.8 0.2 0
17.1 0.2 0
17.4 0.2 0
17.7 0.2 0
18 0.2 0
18.3 0.2 0
18.6 0.2 0
18.9 0.2 0
19.2 0.2 0
19.5 0.2 0
19.8 0.2 0
20.1 0.2 0
20.4 0.2 0
20.7 0.2 0
21 0.2 0
21.3 0.2 0
21.6 0.2 0
21.9 0.2 0
22.2 0.2 0
22.5 0.2 0
22.8 0.2 0
23.1 0.2 0
23.4 0.2 0
23.7 0.2 0
24 0.2 0
24.3 0.2 0
24.6 0.2 0
24.9 0.2 0
25.2 0.2 0
25.5 0.2 0
25.8 0.2 0
26.1 0.2 0
26.4 0.2 0
26.7 0.2 0
27 0.2 0
27.3 0.2 0
27.6 0.2 0
27.9 0.2 0
28.2 0.2 0
28.5 0.2 0
28.8 0.2 0
29.1 0.2 0
29.4 0.2 0
29.7 0.2 0
30 0.2 0
30.3 0.2 0
30.6 0.2 0
30.9 0.2 0
31.2 0.2 0
31.5 0.2 0
31.8 0.2 0
32.1 0.2 0
32.4 0.2 0
32.7 0.2 0
33 0.2 0
33.3 0.2 0
33.6 0.2 0
33.9 0.2 0
34.2 0.2 0
34.5 0.2 0
34.8 0.2 0
35.1 0.2 0
35.4 0.2 0
35.7 0.2 0
36 0.2 0
36.3 0.2 0
36.6 0.2 0
36.9 0.2 0
37.2 0.2 0
37.5 0.2 0
37.8 0.2 0
38.1 0.2 0
38.4 0.2 0
38.7 0.2 0
39 0.2 0
39.3 0.2 0
39.6 0.2 0
39.9 0.2 0
40.2 0.2 0
40.5 0.2 0
40.8 0.2 0
41.1 0.2 0
41.4 0.2 0
41.7 0.2 0
42 0.2 0
42.3 0.2 0
42.6 0.2 0
42.9 0.2 0
43.2 0.2 0
43.5 0.2 0
43.8 0.2 0
44.1 0.2 0
44.4 0.2 0
44.7 0.2 0
45 0.2 0
45.3 0.2 0
45.6 0.2 0
45.9 0.2 0
46.2 0.2 0
46.5 0.2 0
46.8 0.2 0
47.1 0.2 0
47.4 0.2 0
47.7 0.2 0
48 0.2 0
48.3 0.2 0
48.6 0.2 0
48.9 0.2 0
49.2 0.2 0
49.5 0.2 0
49.8 0.2 0
50.1 0.2 0
50.4 0.2 0
50.7 0.2 0
51 0.2 0
51.3 0.2 0
51.6 0.2 0
51.9 0.2 0
52.2 0.2 0
52.5 0.2 0
52.8 0.2 0
53.1 0.2 0
53.4 0.2 0
53.7 0.2 0
54 0.2 0
54.3 0.2 0
54.6 0.2 0
[...]
POINT_DATA 8844

SCALARS p float 1
LOOKUP_TABLE default
6.51071
6.51071
6.22474
6.03934
5.89735
5.77157
5.65301
5.53836
5.42628
5.31623
5.20795
5.10134
4.99636
4.89298
4.79118
4.69096
4.59229
4.49519
4.39962
4.3056
4.2131
4.12211
4.03263
3.94465
3.85814
3.77311
3.68954
3.60741
3.52671
3.44744
3.36957
3.2931
3.218
3.14428
3.0719
3.00086
2.93114
2.86272
2.7956
2.72976
2.66518
2.60184
2.53973
2.47884
2.41915
2.36064
2.30329
2.2471
2.19205
2.13811
2.08528
2.03353
1.98286
1.93324
1.88466
1.83711
1.79057
1.74501
1.70044
1.65682
1.61415
1.57242
1.53159
1.49167
1.45263
1.41446
1.37715
1.34068
1.30503
1.27019
1.23615
1.20289
1.1704
1.13867
1.10767
1.07741
1.04785
1.019
0.990827
0.963332
0.936498
0.910311
0.88476
0.859831
0.835513
0.811793
0.78866
0.766101
0.744105
0.72266
0.701756
0.68138
0.661522
0.642172
0.623317
0.604949
0.587055
0.569627
0.552654
0.536127
0.520034
0.504368
0.489118
0.474275
0.45983
0.445775
0.432099
0.418795
0.405853
0.393267
0.381026
0.369124
0.357552
0.346302
0.335367
0.324739
0.314411
0.304376
0.294625
0.285153
0.275953
0.267017
0.258339
0.249913
0.241732
0.233791
0.226082
0.2186
0.211339
0.204293
0.197457
0.190825
0.184392
0.178152
0.172101
0.166232
0.160542
0.155025
0.149676
0.144492
0.139466
0.134595
0.129875
0.125301
0.120869
0.116574
0.112414
0.108383
0.104479
0.100696
0.0970327
0.0934842
0.0900473
0.0867185
0.0834945
0.0803721
0.0773479
0.0744189
0.071582
0.0688342
0.0661726
0.0635943
0.0610965
0.0586764
0.0563314
0.0540588
0.0518562
0.0497208
0.0476504
0.0456424
0.0436946
0.0418045
0.03997
0.0381888
0.0364587
0.0347776
0.0331433
0.0315539
0.0300073
0.0285016
0.0270347
0.0256047
0.0242098
0.022848
0.0215177
0.0202168
0.0189438
0.0176968
0.016474
0.0152738
0.0140944
0.0129343
0.0117916
0.0106648
0.00955229
0.00845233
0.00736336
0.00628377
0.00521196
0.00414632
0.00308528
0.00202724
0.000970603
-8.62085e-05
-0.00114479
-0.00220673
-0.00327364
-0.00434712
-0.00542878
-0.00652024
-0.00762316
-0.00873916
-0.00986991
-0.0110171
-0.0121824
-0.0133675
-0.0145743
-0.0158043
-0.0170594
-0.0183415
-0.0196522
-0.0209936
-0.0223675
-0.0237757
-0.0252203
-0.0267032
-0.0282265
-0.0297922
-0.0314024
-0.0330592
-0.0347649
-0.0365216
-0.0383316
-0.0401973
-0.0421209
-0.044105
-0.046152
-0.0482643
-0.0504447
-0.0526957
-0.05502
-0.0574204
-0.0598996
-0.0624607
-0.0651064
-0.0678399
-0.0706642
-0.0735825
-0.076598
-0.079714
-0.0829339
-0.0862611
-0.0896993
-0.0932519
-0.0969227
-0.100716
-0.104634
-0.108683
-0.112865
-0.117186
-0.121649
-0.126258
-0.131019
-0.135935
-0.141011
-0.146252
-0.151663
-0.157249
-0.163015
-0.168966
-0.175107
-0.181443
-0.187981
-0.194726
-0.201683
-0.208859
-0.216259
-0.22389
-0.231757
-0.239868
-0.248228
-0.256845
-0.265724
-0.274873
-0.2843
-0.29401
-0.304012
-0.314312
-0.324919
-0.33584
-0.347083
-0.358656
-0.370567
-0.382825
-0.395437
-0.408413
-0.421761
-0.435491
-0.44961
-0.464129
-0.479056
-0.494402
-0.510176
-0.526388
-0.543047
-0.560164
-0.57775
-0.595815
-0.614369
-0.633423
-0.652988
-0.673076
-0.693697
-0.714864
-0.736587
-0.758879
-0.781752
-0.805217
-0.829288
-0.853975
-0.879293
-0.905254
-0.931871
-0.959157
-0.987125
-1.01579
-1.04516
-1.07526
-1.10609
-1.13768
-1.17003
-1.20316
-1.23708
-1.27182
-1.30737
-1.34377
-1.38102
-1.41914
-1.45814
-1.49804
-1.53886
-1.58061
-1.62331
-1.66697
-1.71161
-1.75724
-1.80388
-1.85155
-1.90026
-1.95003
-2.00088
-2.05282
-2.10587
-2.16004
-2.21535
-2.27182
-2.32946
-2.3883
-2.44833
-2.50959
-2.57209
-2.63584
-2.70086
-2.76716
-2.83476
-2.90368
-2.97393
-3.04553
-3.11848
-3.19281
-3.26853
-3.34565
-3.42419
-3.50415
-3.58556
-3.66843
-3.75276
-3.83858
-3.92588
-4.01469
-4.10501
-4.19686
-4.29024
-4.38517
-4.48165
-4.57969
-4.6793
-4.78049
-4.88327
-4.98764
-5.09363
-5.20124
-5.31053
-5.42158
-5.5346
-5.65009
-5.76922
-5.89487
-6.03456
-6.20943
-6.55483
6.55483
6.51071
6.51071
6.22474
6.03934
5.89735
5.77157
5.65301
5.53836
5.42628
5.31623
5.20795
5.10134
4.99636
4.89298
4.79118
4.69096
4.59229
4.49519
4.39962
4.3056
4.2131
4.12211
4.03263
3.94465
3.85814
3.77311
3.68954
3.60741
3.52671
3.44744
3.36957
3.2931
3.218
3.14428
3.0719
3.00086
2.93114
2.86272
2.7956
2.72976
2.66518
2.60184
2.53973
2.47884
2.41915
2.36064
2.30329
2.2471
2.19205
2.13811
2.08528
2.03353
1.98286
1.93324
1.88466
1.83711
1.79057
1.74501
1.70044
1.65682
1.61415
1.57242
1.53159
1.49167
1.45263
1.41446
1.37715
1.34068
1.30503
1.27019
1.23615
1.20289
1.1704
1.13867
1.10767
1.07741
1.04785
1.019
0.990827
0.963332
0.936498
0.910311
0.88476
0.859831
0.835513
0.811793
0.78866
0.766101
0.744105
0.72266
0.701756
0.68138
0.661522
0.642172
0.623317
0.604949
0.587055
0.569627
0.552654
0.536127
0.520034
0.504368
0.489118
0.474275
0.45983
0.445775
0.432099
0.418795
0.405853
0.393267
0.381026
0.369124
0.357552
0.346302
0.335367
0.324739
0.314411
0.304376
0.294625
0.285153
0.275953
0.267017
0.258339
0.249913
0.241732
0.233791
0.226082
0.2186
0.211339
0.204293
0.197457
0.190825
0.184392
0.178152
0.172101
0.166232
0.160542
0.155025
0.149676
0.144492
0.139466
0.134595
0.129875
0.125301
0.120869
0.116574
0.112414
0.108383
0.104479
0.100696
0.0970327
0.0934842
0.0900473
0.0867185
0.0834945
0.0803721
0.0773479
0.0744189
0.071582
0.0688342
0.0661726
0.0635943
0.0610965
0.0586764
0.0563314
0.0540588
0.0518562
0.0497208
0.0476504
0.0456424
0.0436946
0.0418045
0.03997
0.0381888
0.0364587
0.0347776
0.0331433
0.0315539
0.0300073
0.0285016
0.0270347
0.0256047
0.0242098
0.022848
0.0215177
0.0202168
0.0189438
0.0176968
0.016474
0.0152738
0.0140944
0.0129343
0.0117916
0.0106648
0.00955229
0.00845233
0.00736336
0.00628377
0.00521196
0.00414632
0.00308528
0.00202724
0.000970603
-8.62085e-05
-0.00114479
-0.00220673
-0.00327364
-0.00434712
-0.00542878
-0.00652024
-0.00762316
-0.00873916
-0.00986991
-0.0110171
-0.0121824
-0.0133675
-0.0145743
-0.0158043
-0.0170594
-0.0183415
-0.0196522
-0.0209936
-0.0223675
-0.0237757
-0.0252203
-0.0267032
-0.0282265
-0.0297922
-0.0314024
-0.0330592
-0.0347649
-0.0365216
-0.0383316
-0.0401973
-0.0421209
-0.044105
-0.046152
-0.0482643
-0.0504447
-0.0526957
-0.05502
-0.0574204
-0.0598996
-0.0624607
-0.0651064
-0.0678399
-0.0706642
-0.0735825
-0.076598
-0.079714
-0.0829339
-0.0862611
-0.0896993
-0.0932519
-0.0969227
-0.100716
-0.104634
-0.108683
-0.112865
-0.117186
-0.121649
-0.126258
-0.131019
-0.135935
-0.141011
-0.146252
-0.151663
-0.157249
-0.163015
-0.168966
-0.175107
-0.181443
-0.187981
-0.194726
-0.201683
-0.208859
-0.216259
-0.22389
-0.231757
-0.239868
-0.248228
-0.256845
-0.265724
-0.274873
-0.2843
-0.29401
-0.304012
-0.314312
-0.324919
-0.33584
-0.347083
-0.358656
-0.370567
-0.382825
-0.395437
-0.408413
-0.421761
-0.435491
-0.44961
-0.464129
-0.479056
-0.494402
-0.510176
-0.526388
-0.543047
-0.560164
-0.57775
-0.595815
-0.614369
-0.633423
-0.652988
-0.673076
-0.693697
-0.714864
-0.736587
-0.758879
-0.781752
-0.805217
-0.829288
-0.853975
-0.879293
-0.905254
-0.931871
-0.959157
-0.987125
-1.01579
-1.04516
-1.07526
-1.10609
-1.13768
-1.17003
-1.20316
-1.23708
-1.27182
-1.30737
-1.34377
-1.38102
-1.41914
-1.45814
-1.49804
-1.53886
-1.58061
-1.62331
-1.66697
-1.71161
-1.75724
-1.80388
-1.85155
-1.90026
-1.95003
-2.00088
-2.05282
-2.10587
-2.16004
-2.21535
-2.27182
-2.32946
-2.3883
-2.44833
-2.50959
-2.57209
-2.63584
-2.70086
-2.76716
-2.83476
-2.90368
-2.97393
-3.04553
-3.11848
-3.19281
-3.26853
-3.34565
-3.42419
-3.50415
-3.58556
-3.66843
-3.75276
-3.83858
-3.92588
-4.01469
-4.10501
-4.19686
-4.29024
-4.38517
-4.48165
-4.57969
-4.6793
-4.78049
-4.88327
-4.98764
-5.09363
-5.20124
-5.31053
-5.42158
-5.5346
-5.65009
-5.76922
-5.89487
-6.03456
-6.20943
-6.55483
6.55483
6.40217
6.40217
6.20032
6.03383
5.89593
5.77134
5.65321
5.53873
5.42672
5.31669
5.20843
5.10183
4.99685
4.89346
4.79166
4.69143
4.59277
4.49566
4.4001
4.30607
4.21356
4.12257
4.03309
3.9451
3.85859
3.77356
3.68998
3.60785
3.52715
3.44787
3.37
3.29352
3.21842
3.14469
3.0723
3.00126
2.93153
2.86311
2.79599
2.73014
2.66555
2.60221
2.5401
2.4792
2.4195
2.36099
2.30364
2.24744
2.19238
2.13844
2.0856
2.03385
1.98317
1.93355
1.88497
1.83741
1.79086
1.7453
1.70072
1.6571
1.61443
1.57268
1.53186
1.49193
1.45289
1.41471
1.3774
1.34092
1.30526
1.27042
1.23638
1.20312
1.17062
1.13888
1.10788
1.07761
1.04805
1.01919
0.991021
0.963522
0.936683
0.910493
0.884938
0.860005
0.835684
0.81196
0.788823
0.766261
0.744261
0.722813
0.701906
0.681527
0.661666
0.642312
0.623454
0.605083
0.587186
0.569755
0.552779
0.536249
0.520154
0.504485
0.489232
0.474387
0.459939
0.445881
0.432202
0.418896
0.405952
0.393363
0.38112
0.369216
0.357641
0.346389
0.335452
0.324822
0.314492
0.304454
0.294702
0.285228
0.276026
0.267088
0.258409
0.249981
0.241798
0.233855
0.226144
0.218661
0.211398
0.204351
0.197513
0.19088
0.184445
0.178204
0.172151
0.166281
0.160589
0.155071
0.149721
0.144535
0.139508
0.134636
0.129915
0.125339
0.120906
0.116611
0.112449
0.108417
0.104512
0.100728
0.0970639
0.0935144
0.0900766
0.0867469
0.083522
0.0803987
0.0773736
0.0744438
0.0716061
0.0688575
0.0661951
0.063616
0.0611174
0.0586967
0.056351
0.0540777
0.0518743
0.0497383
0.0476673
0.0456586
0.0437102
0.0418195
0.0399844
0.0382026
0.0364719
0.0347902
0.0331555
0.0315655
0.0300184
0.0285121
0.0270447
0.0256142
0.0242188
0.0228566
0.0215257
0.0202244
0.0189509
0.0177034
0.0164802
0.0152795
0.0140997
0.0129391
0.011796
0.0106688
0.00955585
0.00845547
0.00736608
0.00628607
0.00521384
0.00414779
0.00308633
0.00202787
0.000970817
-8.64098e-05
-0.00114541
-0.00220777
-0.00327509
-0.00434899
-0.00543107
-0.00652297
-0.00762631
-0.00874274
-0.00987393
-0.0110216
-0.0121873
-0.0133729
-0.0145801
-0.0158106
-0.0170662
-0.0183487
-0.01966
-0.0210018
-0.0223762
-0.0237849
-0.02523
-0.0267135
-0.0282373
-0.0298035
-0.0314143
-0.0330717
-0.0347779
-0.0365352
-0.0383458
-0.0402121
-0.0421364
-0.0441212
-0.0461688
-0.0482818
-0.0504629
-0.0527146
-0.0550396
-0.0574407
-0.0599207
-0.0624826
-0.0651291
-0.0678634
-0.0706886
-0.0736077
-0.0766241
-0.079741
-0.0829618
-0.08629
-0.0897291
-0.0932827
-0.0969545
-0.100748
-0.104668
-0.108718
-0.112901
-0.117223
-0.121687
-0.126298
-0.131059
-0.135977
-0.141054
-0.146297
-0.151709
-0.157297
-0.163064
-0.169016
-0.175158
-0.181497
-0.188036
-0.194782
-0.201741
-0.208918
-0.21632
-0.223953
-0.231822
-0.239934
-0.248296
-0.256915
-0.265796
-0.274947
-0.284376
-0.294088
-0.304092
-0.314394
-0.325003
-0.335927
-0.347172
-0.358747
-0.370661
-0.382921
-0.395535
-0.408514
-0.421864
-0.435596
-0.449718
-0.46424
-0.47917
-0.494518
-0.510295
-0.52651
-0.543172
-0.560292
-0.577881
-0.595949
-0.614506
-0.633563
-0.653132
-0.673223
-0.693847
-0.715017
-0.736744
-0.75904
-0.781916
-0.805385
-0.829459
-0.854151
-0.879472
-0.905437
-0.932058
-0.959348
-0.98732
-1.01599
-1.04537
-1.07547
-1.1063
-1.13789
-1.17025
-1.20338
-1.23731
-1.27205
-1.30761
-1.34401
-1.38127
-1.41939
-1.4584
-1.49831
-1.53913
-1.58088
-1.62359
-1.66725
-1.71189
-1.75753
-1.80418
-1.85185
-1.90057
-1.95035
-2.0012
-2.05314
-2.1062
-2.16037
-2.21569
-2.27217
-2.32981
-2.38865
-2.44869
-2.50996
-2.57246
-2.63621
-2.70124
-2.76755
-2.83516
-2.90408
-2.97433
-3.04593
-3.11889
-3.19323
-3.26895
-3.34608
-3.42462
-3.50459
-3.586
-3.66887
-3.75321
-3.83903
-3.92634
-4.01515
-4.10548
-4.19733
-4.29071
-4.38564
-4.48212
-4.58017
-4.67978
-4.78097
-4.88375
-4.98813
-5.09411
-5.20172
-5.311
-5.42203
-5.53499
-5.65034
-5.7691
-5.8938
-6.03066
-6.19563
-6.43339
6.43339
6.31865
6.31865
6.17156
6.02478
5.89298
5.77048
5.65315
5.539
5.42713
5.31715
5.20891
5.10232
4.99734
4.89396
4.79215
4.69192
4.59326
4.49614
4.40057
4.30654
4.21403
4.12304
4.03356
3.94556
3.85905
3.77401
3.69043
3.60829
3.52759
3.4483
3.37043
3.29395
3.21884
3.1451
3.07272
3.00166
2.93193
2.86351
2.79638
2.73053
2.66593
2.60259
2.54047
2.47957
2.41986
2.36134
2.30399
2.24779
2.19272
2.13877
2.08593
2.03418
1.98349
1.93386
1.88528
1.83771
1.79116
1.74559
1.70101
1.65738
1.61471
1.57296
1.53213
1.49219
1.45315
1.41497
1.37764
1.34116
1.30551
1.27066
1.23661
1.20334
1.17085
1.1391
1.1081
1.07782
1.04826
1.01939
0.991218
0.963715
0.936873
0.910678
0.885119
0.860183
0.835858
0.812131
0.78899
0.766424
0.744421
0.72297
0.702058
0.681676
0.661812
0.642455
0.623594
0.605219
0.58732
0.569886
0.552907
0.536374
0.520276
0.504604
0.489348
0.4745
0.46005
0.445989
0.432308
0.418999
0.406053
0.393461
0.381216
0.369309
0.357733
0.346478
0.335539
0.324907
0.314575
0.304535
0.294781
0.285305
0.2761
0.267161
0.258479
0.25005
0.241865
0.23392
0.226208
0.218722
0.211458
0.204409
0.19757
0.190935
0.184499
0.178256
0.172202
0.166331
0.160638
0.155118
0.149767
0.144579
0.139551
0.134678
0.129955
0.125379
0.120944
0.116648
0.112485
0.108452
0.104546
0.100761
0.0970957
0.0935453
0.0901065
0.0867759
0.0835501
0.0804258
0.0773999
0.0744692
0.0716307
0.0688813
0.0662181
0.0636382
0.0611389
0.0587174
0.0563709
0.054097
0.0518929
0.0497562
0.0476845
0.0456752
0.0437261
0.0418348
0.0399991
0.0382167
0.0364854
0.0348032
0.0331678
0.0315773
0.0300297
0.0285228
0.0270549
0.0256239
0.024228
0.0228653
0.0215339
0.0202321
0.0189581
0.0177102
0.0164865
0.0152854
0.0141051
0.0129441
0.0118006
0.0106729
0.00955949
0.00845868
0.00736885
0.00628841
0.00521575
0.00414928
0.00308739
0.00202851
0.000971036
-8.66156e-05
-0.00114604
-0.00220882
-0.00327658
-0.00435091
-0.00543342
-0.00652575
-0.00762953
-0.00874641
-0.00987804
-0.0110261
-0.0121923
-0.0133784
-0.014586
-0.015817
-0.0170731
-0.0183561
-0.0196678
-0.0210102
-0.022385
-0.0237943
-0.02524
-0.0267239
-0.0282483
-0.0298151
-0.0314264
-0.0330844
-0.0347912
-0.0365491
-0.0383604
-0.0402273
-0.0421523
-0.0441376
-0.0461859
-0.0482997
-0.0504815
-0.0527339
-0.0550596
-0.0574615
-0.0599423
-0.0625049
-0.0651523
-0.0678874
-0.0707134
-0.0736334
-0.0766507
-0.0797685
-0.0829903
-0.0863194
-0.0897595
-0.0933141
-0.096987
-0.100782
-0.104703
-0.108754
-0.112938
-0.117261
-0.121726
-0.126338
-0.131101
-0.13602
-0.141098
-0.146342
-0.151756
-0.157345
-0.163113
-0.169067
-0.175211
-0.181551
-0.188092
-0.19484
-0.2018
-0.208979
-0.216383
-0.224017
-0.231888
-0.240002
-0.248366
-0.256986
-0.265869
-0.275023
-0.284453
-0.294167
-0.304173
-0.314478
-0.325089
-0.336015
-0.347262
-0.35884
-0.370756
-0.383018
-0.395635
-0.408616
-0.421969
-0.435704
-0.449829
-0.464353
-0.479286
-0.494637
-0.510417
-0.526634
-0.543299
-0.560423
-0.578015
-0.596085
-0.614645
-0.633706
-0.653278
-0.673372
-0.694001
-0.715174
-0.736904
-0.759204
-0.782083
-0.805556
-0.829634
-0.854329
-0.879655
-0.905624
-0.932248
-0.959542
-0.987519
-1.01619
-1.04557
-1.07568
-1.10652
-1.13811
-1.17047
-1.20361
-1.23755
-1.27229
-1.30785
-1.34426
-1.38152
-1.41965
-1.45866
-1.49857
-1.5394
-1.58116
-1.62387
-1.66754
-1.71219
-1.75783
-1.80448
-1.85216
-1.90088
-1.95067
-2.00152
-2.05347
-2.10653
-2.16071
-2.21604
-2.27252
-2.33017
-2.38901
-2.44906
-2.51033
-2.57284
-2.6366
-2.70163
-2.76794
-2.83555
-2.90448
-2.97474
-3.04635
-3.11931
-3.19365
-3.26938
-3.34651
-3.42506
-3.50503
-3.58645
-3.66932
-3.75367
-3.83949
-3.9268
-4.01562
-4.10595
-4.1978
-4.29119
-4.38612
-4.48261
-4.58065
-4.68027
-4.78147
-4.88425
-4.98862
-5.09461
-5.20221
-5.31147
-5.42245
-5.5353
-5.65036
-5.76845
-5.8914
-6.0234
-6.17254
-6.34144
6.34144
6.25448
6.25448
6.14312
6.014
5.88903
5.76917
5.65291
5.53919
5.4275
5.31761
5.2094
5.10282
4.99784
4.89446
4.79265
4.69242
4.59375
4.49664
4.40106
4.30703
4.21452
4.12352
4.03403
3.94603
3.85952
3.77447
3.69089
3.60875
3.52804
3.44875
3.37087
3.29438
3.21927
3.14553
3.07314
3.00208
2.93235
2.86392
2.79678
2.73092
2.66632
2.60297
2.54085
2.47994
2.42023
2.36171
2.30435
2.24814
2.19307
2.13912
2.08627
2.03451
1.98382
1.93419
1.88559
1.83802
1.79146
1.74589
1.7013
1.65767
1.61499
1.57324
1.5324
1.49246
1.45341
1.41523
1.3779
1.34141
1.30575
1.2709
1.23685
1.20358
1.17107
1.13932
1.10832
1.07804
1.04847
1.0196
0.991419
0.963912
0.937066
0.910868
0.885305
0.860365
0.836035
0.812305
0.78916
0.766591
0.744584
0.723129
0.702214
0.681829
0.661961
0.642601
0.623737
0.605359
0.587456
0.570019
0.553037
0.536501
0.5204
0.504725
0.489467
0.474616
0.460163
0.4461
0.432416
0.419104
0.406156
0.393562
0.381314
0.369405
0.357826
0.346569
0.335628
0.324993
0.314659
0.304617
0.294861
0.285383
0.276176
0.267235
0.258552
0.25012
0.241934
0.233987
0.226273
0.218786
0.21152
0.204469
0.197629
0.190992
0.184554
0.17831
0.172254
0.166381
0.160687
0.155166
0.149813
0.144624
0.139595
0.134721
0.129997
0.125419
0.120983
0.116686
0.112522
0.108488
0.10458
0.100795
0.0971283
0.0935768
0.090137
0.0868054
0.0835787
0.0804535
0.0774267
0.0744952
0.0716558
0.0689055
0.0662415
0.0636609
0.0611608
0.0587385
0.0563913
0.0541166
0.0519118
0.0497745
0.047702
0.0456921
0.0437424
0.0418504
0.0400141
0.0382311
0.0364992
0.0348164
0.0331805
0.0315894
0.0300412
0.0285338
0.0270653
0.0256338
0.0242374
0.0228741
0.0215423
0.02024
0.0189656
0.0177171
0.016493
0.0152914
0.0141107
0.0129492
0.0118052
0.0106771
0.0095632
0.00846195
0.00737169
0.00629081
0.00521771
0.0041508
0.00308848
0.00202916
0.000971259
-8.68257e-05
-0.00114668
-0.0022099
-0.00327809
-0.00435286
-0.00543582
-0.00652859
-0.00763282
-0.00875014
-0.00988224
-0.0110308
-0.0121974
-0.013384
-0.0145921
-0.0158235
-0.0170801
-0.0183636
-0.0196759
-0.0210187
-0.0223941
-0.0238039
-0.0252501
-0.0267346
-0.0282596
-0.0298269
-0.0314388
-0.0330974
-0.0348048
-0.0365634
-0.0383752
-0.0402428
-0.0421684
-0.0441545
-0.0462035
-0.0483179
-0.0505004
-0.0527536
-0.0550801
-0.0574827
-0.0599643
-0.0625277
-0.0651759
-0.0679119
-0.0707388
-0.0736597
-0.0766779
-0.0797966
-0.0830193
-0.0863495
-0.0897905
-0.0933462
-0.0970201
-0.100816
-0.104738
-0.10879
-0.112976
-0.1173
-0.121766
-0.126379
-0.131144
-0.136063
-0.141144
-0.146389
-0.151804
-0.157394
-0.163164
-0.169119
-0.175265
-0.181606
-0.188149
-0.194898
-0.20186
-0.209041
-0.216446
-0.224082
-0.231955
-0.240071
-0.248437
-0.257059
-0.265944
-0.2751
-0.284532
-0.294249
-0.304257
-0.314564
-0.325177
-0.336105
-0.347355
-0.358935
-0.370853
-0.383118
-0.395738
-0.408721
-0.422077
-0.435814
-0.449941
-0.464468
-0.479404
-0.494758
-0.510541
-0.526761
-0.543429
-0.560556
-0.578151
-0.596225
-0.614788
-0.633852
-0.653427
-0.673525
-0.694157
-0.715334
-0.737068
-0.759371
-0.782254
-0.805731
-0.829812
-0.854512
-0.879841
-0.905814
-0.932443
-0.959741
-0.987721
-1.0164
-1.04578
-1.07589
-1.10674
-1.13834
-1.1707
-1.20385
-1.23778
-1.27253
-1.3081
-1.34451
-1.38178
-1.41991
-1.45893
-1.49885
-1.53968
-1.58144
-1.62416
-1.66783
-1.71248
-1.75813
-1.80479
-1.85248
-1.9012
-1.95099
-2.00186
-2.05381
-2.10687
-2.16106
-2.21639
-2.27288
-2.33053
-2.38938
-2.44944
-2.51071
-2.57322
-2.63699
-2.70202
-2.76834
-2.83596
-2.9049
-2.97516
-3.04677
-3.11974
-3.19408
-3.26982
-3.34695
-3.4255
-3.50548
-3.58691
-3.66979
-3.75413
-3.83996
-3.92727
-4.0161
-4.10643
-4.19829
-4.29168
-4.38661
-4.4831
-4.58115
-4.68077
-4.78197
-4.88475
-4.98913
-5.09511
-5.2027
-5.31193
-5.42285
-5.53554
-5.65022
-5.76739
-5.88807
-6.01415
-6.14697
-6.27175
6.27175
6.20502
6.20502
6.11731
6.00291
5.88464
5.76762
5.65255
5.53934
5.42786
5.31806
5.20989
5.10332
4.99835
4.89497
4.79316
4.69293
4.59426
4.49714
4.40156
4.30752
4.21501
4.12401
4.03452
3.94651
3.85999
3.77495
3.69135
3.60921
3.5285
3.4492
3.37132
3.29483
3.21971
3.14596
3.07357
3.0025
2.93276
2.86433
2.79719
2.73133
2.66672
2.60336
2.54124
2.48032
2.42061
2.36208
2.30471
2.2485
2.19342
2.13947
2.08661
2.03485
1.98415
1.93451
1.88591
1.83834
1.79177
1.7462
1.7016
1.65797
1.61528
1.57352
1.53268
1.49274
1.45368
1.41549
1.37816
1.34167
1.306
1.27115
1.23709
1.20381
1.1713
1.13955
1.10854
1.07825
1.04868
1.01981
0.991625
0.964114
0.937263
0.911061
0.885494
0.86055
0.836217
0.812482
0.789334
0.766761
0.74475
0.723292
0.702374
0.681985
0.662113
0.64275
0.623882
0.605501
0.587595
0.570155
0.55317
0.536631
0.520527
0.504849
0.489588
0.474734
0.460279
0.446212
0.432526
0.419212
0.406261
0.393664
0.381414
0.369502
0.357921
0.346662
0.335718
0.325082
0.314745
0.304701
0.294942
0.285462
0.276254
0.26731
0.258625
0.250192
0.242004
0.234055
0.226339
0.21885
0.211583
0.20453
0.197688
0.19105
0.184611
0.178365
0.172307
0.166433
0.160737
0.155215
0.149861
0.144671
0.13964
0.134764
0.130039
0.12546
0.121023