# vtk DataFile Version 2.0
FlowField
ASCII
DATASET STRUCTURED_GRID
DIMENSIONS 102 12 1 
POINTS 1224 double
0 0 0
0.3 0 0
0.6 0 0
0.9 0 0
1.2 0 0
1.5 0 0
1.8 0 0
2.1 0 0
2.4 0 0
2.7 0 0
3 0 0
3.3 0 0
3.6 0 0
3.9 0 0
4.2 0 0
4.5 0 0
4.8 0 0
5.1 0 0
5.4 0 0
5.7 0 0
6 0 0
6.3 0 0
6.6 0 0
6.9 0 0
7.2 0 0
7.5 0 0
7.8 0 0
8.1 0 0
8.4 0 0
8.7 0 0
9 0 0
9.3 0 0
9.6 0 0
9.9 0 0
10.2 0 0
10.5 0 0
10.8 0 0
11.1 0 0
11.4 0 0
11.7 0 0
12 0 0
12.3 0 0
12.6 0 0
12.9 0 0
13.2 0 0
13.5 0 0
13.8 0 0
14.1 0 0
14.4 0 0
14.7 0 0
15 0 0
15.3 0 0
15.6 0 0
15.9 0 0
16.2 0 0
16.5 0 0
16.8 0 0
17.1 0 0
17.4 0 0
17.7 0 0
18 0 0
18.3 0 0
18.6 0 0
18.9 0 0
19.2 0 0
19.5 0 0
19.8 0 0
20.1 0 0
20.4 0 0
20.7 0 0
21 0 0
21.3 0 0
21.6 0 0
21.9 0 0
22.2 0 0
22.5 0 0
22.8 0 0
23.1 0 0
23.4 0 0
23.7 0 0
24 0 0
24.3 0 0
24.6 0 0
24.9 0 0
25.2 0 0
25.5 0 0
25.8 0 0
26.1 0 0
26.4 0 0
26.7 0 0
27 0 0
27.3 0 0
27.6 0 0
27.9 0 0
28.2 0 0
28.5 0 0
28.8 0 0
29.1 0 0
29.4 0 0
29.7 0 0
30 0 0
30.3 0 0
0 0.1 0
0.3 0.1 0
0.6 0.1 0
0.9 0.1 0
1.2 0.1 0
1.5 0.1 0
1.8 0.1 0
2.1 0.1 0
2.4 0.1 0
2.7 0.1 0
3 0.1 0
3.3 0.1 0
3.6 0.1 0
3.9 0.1 0
4.2 0.1 0
4.5 0.1 0
4.8 0.1 0
5.1 0.1 0
5.4 0.1 0
5.7 0.1 0
6 0.1 0
6.3 0.1 0
6.6 0.1 0
6.9 0.1 0
7.2 0.1 0
7.5 0.1 0
7.8 0.1 0
8.1 0.1 0
8.4 0.1 0
8.7 0.1 0
9 0.1 0
9.3 0.1 0
9.6 0.1 0
9.9 0.1 0
10.2 0.1 0
10.5 0.1 0
10.8 0.1 0
11.1 0.1 0
11.4 0.1 0
11.7 0.1 0
12 0.1 0
12.3 0.1 0
12.6 0.1 0
12.9 0.1 0
13.2 0.1 0
13.5 0.1 0
13.8 0.1 0
14.1 0.1 0
14.4 0.1 0
14.7 0.1 0
15 0.1 0
15.3 0.1 0
15.6 0.1 0
15.9 0.1 0
16.2 0.1 0
16.5 0.1 0
16.8 0.1 0
17.1 0.1 0
17.4 0.1 0
17.7 0.1 0
18 0.1 0
18.3 0.1 0
18.6 0.1 0
18.9 0.1 0
19.2 0.1 0
19.5 0.1 0
19.8 0.1 0
20.1 0.1 0
20.4 0.1 0
20.7 0.1 0
21 0.1 0
21.3 0.1 0
21.6 0.1 0
21.9 0.1 0
22.2 0.1 0
22.5 0.1 0
22.8 0.1 0
23.1 0.1 0
23.4 0.1 0
23.7 0.1 0
24 0.1 0
24.3 0.1 0
24.6 0.1 0
24.9 0.1 0
25.2 0.1 0
25.5 0.1 0
25.8 0.1 0
26.1 0.1 0
26.4 0.1 0
26.7 0.1 0
27 0.1 0
27.3 0.1 0
27.6 0.1 0
27.9 0.1 0
28.2 0.1 0
28.5 0.1 0
28.8 0.1 0
29.1 0.1 0
29.4 0.1 0
29.7 0.1 0
30 0.1 0
30.3 0.1 0
0 0.2 0
0.3 0.2 0
0.6 0.2 0
0.9 0.2 0
1.2 0.2 0
1.5 0.2 0
1.8 0.2 0
2.1 0.2 0
2.4 0.2 0
2.7 0.2 0
3 0.2 0
3.3 0.2 0
3.6 0.2 0
3.9 0.2 0
4.2 0.2 0
4.5 0.2 0
4.8 0.2 0
5.1 0.2 0
5.4 0.2 0
5.7 0.2 0
6 0.2 0
6.3 0.2 0
6.6 0.2 0
6.9 0.2 0
7.2 0.2 0
7.5 0.2 0
7.8 0.2 0
8.1 0.2 0
8.4 0.2 0
8.7 0.2 0
9 0.2 0
9.3 0.2 0
9.6 0.2 0
9.9 0.2 0
10.2 0.2 0
10.5 0.2 0
10.8 0.2 0
11.1 0.2 0
11.4 0.2 0
11.7 0.2 0
12 0.2 0
12.3 0.2 0
12.6 0.2 0
12.9 0.2 0
13.2 0.2 0
13.5 0.2 0
13.8 0.2 0
14.1 0.2 0
14.4 0.2 0
14.7 0.2 0
15 0.2 0
15.3 0.2 0
15.6 0.2 0
15.9 0.2 0
16.2 0.2 0
16.5 0.2 0
16.8 0.2 0
17.1 0.2 0
17.4 0.2 0
17.7 0.2 0
18 0.2 0
18.3 0.2 0
18.6 0.2 0
18.9 0.2 0
19.2 0.2 0
19.5 0.2 0
19.8 0.2 0
20.1 0.2 0
20.4 0.2 0
20.7 0.2 0
21 0.2 0
21.3 0.2 0
21.6 0.2 0
21.9 0.2 0
22.2 0.2 0
22.5 0.2 0
22.8 0.2 0
23.1 0.2 0
23.4 0.2 0
23.7 0.2 0
24 0.2 0
24.3 0.2 0
24.6 0.2 0
24.9 0.2 0
25.2 0.2 0
25.5 0.2 0
25.8 0.2 0
26.1 0.2 0
26.4 0.2 0
26.7 0.2 0
27 0.2 0
27.3 0.2 0
27.6 0.2 0
27.9 0.2 0
28.2 0.2 0
28.5 0.2 0
28.8 0.2 0
29.1 0.2 0
29.4 0.2 0
29.7 0.2 0
30 0.2 0
30.3 0.2 0
0 0.3 0
0.3 0.3 0
0.6 0.3 0
0.9 0.3 0
1.2 0.3 0
1.5 0.3 0
1.8 0.3 0
2.1 0.3 0
2.4 0.3 0
2.7 0.3 0
3 0.3 0
3.3 0.3 0
3.6 0.3 0
3.9 0.3 0
4.2 0.3 0
4.5 0.3 0
4.8 0.3 0
5.1 0.3 0
5.4 0.3 0
5.7 0.3 0
6 0.3 0
6.3 0.3 0
6.6 0.3 0
6.9 0.3 0
7.2 0.3 0
7.5 0.3 0
7.8 0.3 0
8.1 0.3 0
8.4 0.3 0
8.7 0.3 0
9 0.3 0
9.3 0.3 0
9.6 0.3 0
9.9 0.3 0
10.2 0.3 0
10.5 0.3 0
10.8 0.3 0
11.1 0.3 0
11.4 0.3 0
11.7 0.3 0
12 0.3 0
12.3 0.3 0
12.6 0.3 0
12.9 0.3 0
13.2 0.3 0
13.5 0.3 0
13.8 0.3 0
14.1 0.3 0
14.4 0.3 0
14.7 0.3 0
15 0.3 0
15.3 0.3 0
15.6 0.3 0
15.9 0.3 0
16.2 0.3 0
16.5 0.3 0
16.8 0.3 0
17.1 0.3 0
17.4 0.3 0
17.7 0.3 0
18 0.3 0
18.3 0.3 0
18.6 0.3 0
18.9 0.3 0
19.2 0.3 0
19.5 0.3 0
19.8 0.3 0
20.1 0.3 0
20.4 0.3 0
20.7 0.3 0
21 0.3 0
21.3 0.3 0
21.6 0.3 0
21.9 0.3 0
22.2 0.3 0
22.5 0.3 0
22.8 0.3 0
23.1 0.3 0
23.4 0.3 0
23.7 0.3 0
24 0.3 0
24.3 0.3 0
24.6 0.3 0
24.9 0.3 0
25.2 0.3 0
25.5 0.3 0
25.8 0.3 0
26.1 0.3 0
26.4 0.3 0
26.7 0.3 0
27 0.3 0
27.3 0.3 0
27.6 0.3 0
27.9 0.3 0
28.2 0.3 0
28.5 0.3 0
28.8 0.3 0
29.1 0.3 0
29.4 0.3 0
29.7 0.3 0
30 0.3 0
30.3 0.3 0
0 0.4 0
0.3 0.4 0
0.6 0.4 0
0.9 0.4 0
1.2 0.4 0
1.5 0.4 0
1.8 0.4 0
2.1 0.4 0
2.4 0.4 0
2.7 0.4 0
3 0.4 0
3.3 0.4 0
3.6 0.4 0
3.9 0.4 0
4.2 0.4 0
4.5 0.4 0
4.8 0.4 0
5.1 0.4 0
5.4 0.4 0
5.7 0.4 0
6 0.4 0
6.3 0.4 0
6.6 0.4 0
6.9 0.4 0
7.2 0.4 0
7.5 0.4 0
7.8 0.4 0
8.1 0.4 0
8.4 0.4 0
8.7 0.4 0
9 0.4 0
9.3 0.4 0
9.6 0.4 0
9.9 0.4 0
10.2 0.4 0
10.5 0.4 0
10.8 0.4 0
11.1 0.4 0
11.4 0.4 0
11.7 0.4 0
12 0.4 0
12.3 0.4 0
12.6 0.4 0
12.9 0.4 0
13.2 0.4 0
13.5 0.4 0
13.8 0.4 0
14.1 0.4 0
14.4 0.4 0
14.7 0.4 0
15 0.4 0
15.3 0.4 0
15.6 0.4 0
15.9 0.4 0
16.2 0.4 0
16.5 0.4 0
16.8 0.4 0
17.1 0.4 0
17.4 0.4 0
17.7 0.4 0
18 0.4 0
18.3 0.4 0
18.6 0.4 0
18.9 0.4 0
19.2 0.4 0
19.5 0.4 0
19.8 0.4 0
20.1 0.4 0
20.4 0.4 0
20.7 0.4 0
21 0.4 0
21.3 0.4 0
21.6 0.4 0
21.9 0.4 0
22.2 0.4 0
22.5 0.4 0
22.8 0.4 0
23.1 0.4 0
23.4 0.4 0
23.7 0.4 0
24 0.4 0
24.3 0.4 0
24.6 0.4 0
24.9 0.4 0
25.2 0.4 0
25.5 0.4 0
25.8 0.4 0
26.1 0.4 0
26.4 0.4 0
26.7 0.4 0
27 0.4 0
27.3 0.4 0
27.6 0.4 0
27.9 0.4 0
28.2 0.4 0
28.5 0.4 0
28.8 0.4 0
29.1 0.4 0
29.4 0.4 0
29.7 0.4 0
30 0.4 0
30.3 0.4 0
0 0.5 0
0.3 0.5 0
0.6 0.5 0
0.9 0.5 0
1.2 0.5 0
1.5 0.5 0
1.8 0.5 0
2.1 0.5 0
2.4 0.5 0
2.7 0.5 0
3 0.5 0
3.3 0.5 0
3.6 0.5 0
3.9 0.5 0
4.2 0.5 0
4.5 0.5 0
4.8 0.5 0
5.1 0.5 0
5.4 0.5 0
5.7 0.5 0
6 0.5 0
6.3 0.5 0
6.6 0.5 0
6.9 0.5 0
7.2 0.5 0
7.5 0.5 0
7.8 0.5 0
8.1 0.5 0
8.4 0.5 0
8.7 0.5 0
9 0.5 0
9.3 0.5 0
9.6 0.5 0
9.9 0.5 0
10.2 0.5 0
10.5 0.5 0
10.8 0.5 0
11.1 0.5 0
11.4 0.5 0
11.7 0.5 0
12 0.5 0
12.3 0.5 0
12.6 0.5 0
12.9 0.5 0
13.2 0.5 0
13.5 0.5 0
13.8 0.5 0
14.1 0.5 0
14.4 0.5 0
14.7 0.5 0
15 0.5 0
15.3 0.5 0
15.6 0.5 0
15.9 0.5 0
16.2 0.5 0
16.5 0.5 0
16.8 0.5 0
17.1 0.5 0
17.4 0.5 0
17.7 0.5 0
18 0.5 0
18.3 0.5 0
18.6 0.5 0
18.9 0.5 0
19.2 0.5 0
19.5 0.5 0
19.8 0.5 0
20.1 0.5 0
20.4 0.5 0
20.7 0.5 0
21 0.5 0
21.3 0.5 0
21.6 0.5 0
21.9 0.5 0
22.2 0.5 0
22.5 0.5 0
22.8 0.5 0
23.1 0.5 0
23.4 0.5 0
23.7 0.5 0
24 0.5 0
24.3 0.5 0
24.6 0.5 0
24.9 0.5 0
25.2 0.5 0
25.5 0.5 0
25.8 0.5 0
26.1 0.5 0
26.4 0.5 0
26.7 0.5 0
27 0.5 0
27.3 0.5 0
27.6 0.5 0
27.9 0.5 0
28.2 0.5 0
28.5 0.5 0
28.8 0.5 0
29.1 0.5 0
29.4 0.5 0
29.7 0.5 0
30 0.5 0
30.3 0.5 0
0 0.6 0
0.3 0.6 0
0.6 0.6 0
0.9 0.6 0
1.2 0.6 0
1.5 0.6 0
1.8 0.6 0
2.1 0.6 0
2.4 0.6 0
2.7 0.6 0
3 0.6 0
3.3 0.6 0
3.6 0.6 0
3.9 0.6 0
4.2 0.6 0
4.5 0.6 0
4.8 0.6 0
5.1 0.6 0
5.4 0.6 0
5.7 0.6 0
6 0.6 0
6.3 0.6 0
6.6 0.6 0
6.9 0.6 0
7.2 0.6 0
7.5 0.6 0
7.8 0.6 0
8.1 0.6 0
8.4 0.6 0
8.7 0.6 0
9 0.6 0
9.3 0.6 0
9.6 0.6 0
9.9 0.6 0
10.2 0.6 0
10.5 0.6 0
10.8 0.6 0
11.1 0.6 0
11.4 0.6 0
11.7 0.6 0
12 0.6 0
12.3 0.6 0
12.6 0.6 0
12.9 0.6 0
13.2 0.6 0
13.5 0.6 0
13.8 0.6 0
14.1 0.6 0
14.4 0.6 0
14.7 0.6 0
15 0.6 0
15.3 0.6 0
15.6 0.6 0
15.9 0.6 0
16.2 0.6 0
16.5 0.6 0
16.8 0.6 0
17.1 0.6 0
17.4 0.6 0
17.7 0.6 0
18 0.6 0
18.3 0.6 0
18.6 0.6 0
18.9 0.6 0
19.2 0.6 0
19.5 0.6 0
19.8 0.6 0
20.1 0.6 0
20.4 0.6 0
20.7 0.6 0
21 0.6 0
21.3 0.6 0
21.6 0.6 0
21.9 0.6 0
22.2 0.6 0
22.5 0.6 0
22.8 0.6 0
23.1 0.6 0
23.4 0.6 0
23.7 0.6 0
24 0.6 0
24.3 0.6 0
24.6 0.6 0
24.9 0.6 0
25.2 0.6 0
25.5 0.6 0
25.8 0.6 0
26.1 0.6 0
26.4 0.6 0
26.7 0.6 0
27 0.6 0
27.3 0.6 0
27.6 0.6 0
27.9 0.6 0
28.2 0.6 0
28.5 0.6 0
28.8 0.6 0
29.1 0.6 0
29.4 0.6 0
29.7 0.6 0
30 0.6 0
30.3 0.6 0
0 0.7 0
0.3 0.7 0
0.6 0.7 0
0.9 0.7 0
1.2 0.7 0
1.5 0.7 0
1.8 0.7 0
2.1 0.7 0
2.4 0.7 0
2.7 0.7 0
3 0.7 0
3.3 0.7 0
3.6 0.7 0
3.9 0.7 0
4.2 0.7 0
4.5 0.7 0
4.8 0.7 0
5.1 0.7 0
5.4 0.7 0
5.7 0.7 0
6 0.7 0
6.3 0.7 0
6.6 0.7 0
6.9 0.7 0
7.2 0.7 0
7.5 0.7 0
7.8 0.7 0
8.1 0.7 0
8.4 0.7 0
8.7 0.7 0
9 0.7 0
9.3 0.7 0
9.6 0.7 0
9.9 0.7 0
10.2 0.7 0
10.5 0.7 0
10.8 0.7 0
11.1 0.7 0
11.4 0.7 0
11.7 0.7 0
12 0.7 0
12.3 0.7 0
12.6 0.7 0
12.9 0.7 0
13.2 0.7 0
13.5 0.7 0
13.8 0.7 0
14.1 0.7 0
14.4 0.7 0
14.7 0.7 0
15 0.7 0
15.3 0.7 0
15.6 0.7 0
15.9 0.7 0
16.2 0.7 0
16.5 0.7 0
16.8 0.7 0
17.1 0.7 0
17.4 0.7 0
17.7 0.7 0
18 0.7 0
18.3 0.7 0
18.6 0.7 0
18.9 0.7 0
19.2 0.7 0
19.5 0.7 0
19.8 0.7 0
20.1 0.7 0
20.4 0.7 0
20.7 0.7 0
21 0.7 0
21.3 0.7 0
21.6 0.7 0
21.9 0.7 0
22.2 0.7 0
22.5 0.7 0
22.8 0.7 0
23.1 0.7 0
23.4 0.7 0
23.7 0.7 0
24 0.7 0
24.3 0.7 0
24.6 0.7 0
24.9 0.7 0
25.2 0.7 0
25.5 0.7 0
25.8 0.7 0
26.1 0.7 0
26.4 0.7 0
26.7 0.7 0
27 0.7 0
27.3 0.7 0
27.6 0.7 0
27.9 0.7 0
28.2 0.7 0
28.5 0.7 0
28.8 0.7 0
29.1 0.7 0
29.4 0.7 0
29.7 0.7 0
30 0.7 0
30.3 0.7 0
0 0.8 0
0.3 0.8 0
0.6 0.8 0
0.9 0.8 0
1.2 0.8 0
1.5 0.8 0
1.8 0.8 0
2.1 0.8 0
2.4 0.8 0
2.7 0.8 0
3 0.8 0
3.3 0.8 0
3.6 0.8 0
3.9 0.8 0
4.2 0.8 0
4.5 0.8 0
4.8 0.8 0
5.1 0.8 0
5.4 0.8 0
5.7 0.8 0
6 0.8 0
6.3 0.8 0
6.6 0.8 0
6.9 0.8 0
7.2 0.8 0
7.5 0.8 0
7.8 0.8 0
8.1 0.8 0
8.4 0.8 0
8.7 0.8 0
9 0.8 0
9.3 0.8 0
9.6 0.8 0
9.9 0.8 0
10.2 0.8 0
10.5 0.8 0
10.8 0.8 0
11.1 0.8 0
11.4 0.8 0
11.7 0.8 0
12 0.8 0
12.3 0.8 0
12.6 0.8 0
12.9 0.8 0
13.2 0.8 0
13.5 0.8 0
13.8 0.8 0
14.1 0.8 0
14.4 0.8 0
14.7 0.8 0
15 0.8 0
15.3 0.8 0
15.6 0.8 0
15.9 0.8 0
16.2 0.8 0
16.5 0.8 0
16.8 0.8 0
17.1 0.8 0
17.4 0.8 0
17.7 0.8 0
18 0.8 0
18.3 0.8 0
18.6 0.8 0
18.9 0.8 0
19.2 0.8 0
19.5 0.8 0
19.8 0.8 0
20.1 0.8 0
20.4 0.8 0
20.7 0.8 0
21 0.8 0
21.3 0.8 0
21.6 0.8 0
21.9 0.8 0
22.2 0.8 0
22.5 0.8 0
22.8 0.8 0
23.1 0.8 0
23.4 0.8 0
23.7 0.8 0
24 0.8 0
24.3 0.8 0
24.6 0.8 0
24.9 0.8 0
25.2 0.8 0
25.5 0.8 0
25.8 0.8 0
26.1 0.8 0
26.4 0.8 0
26.7 0.8 0
27 0.8 0
27.3 0.8 0
27.6 0.8 0
27.9 0.8 0
28.2 0.8 0
28.5 0.8 0
28.8 0.8 0
29.1 0.8 0
29.4 0.8 0
29.7 0.8 0
30 0.8 0
30.3 0.8 0
0 0.9 0
0.3 0.9 0
0.6 0.9 0
0.9 0.9 0
1.2 0.9 0
1.5 0.9 0
1.8 0.9 0
2.1 0.9 0
2.4 0.9 0
2.7 0.9 0
3 0.9 0
3.3 0.9 0
3.6 0.9 0
3.9 0.9 0
4.2 0.9 0
4.5 0.9 0
4.8 0.9 0
5.1 0.9 0
5.4 0.9 0
5.7 0.9 0
6 0.9 0
6.3 0.9 0
6.6 0.9 0
6.9 0.9 0
7.2 0.9 0
7.5 0.9 0
7.8 0.9 0
8.1 0.9 0
8.4 0.9 0
8.7 0.9 0
9 0.9 0
9.3 0.9 0
9.6 0.9 0
9.9 0.9 0
10.2 0.9 0
10.5 0.9 0
10.8 0.9 0
11.1 0.9 0
11.4 0.9 0
11.7 0.9 0
12 0.9 0
12.3 0.9 0
12.6 0.9 0
12.9 0.9 0
13.2 0.9 0
13.5 0.9 0
13.8 0.9 0
14.1 0.9 0
14.4 0.9 0
14.7 0.9 0
15 0.9 0
15.3 0.9 0
15.6 0.9 0
15.9 0.9 0
16.2 0.9 0
16.5 0.9 0
16.8 0.9 0
17.1 0.9 0
17.4 0.9 0
17.7 0.9 0
18 0.9 0
18.3 0.9 0
18.6 0.9 0
18.9 0.9 0
19.2 0.9 0
19.5 0.9 0
19.8 0.9 0
20.1 0.9 0
20.4 0.9 0
20.7 0.9 0
21 0.9 0
21.3 0.9 0
21.6 0.9 0
21.9 0.9 0
22.2 0.9 0
22.5 0.9 0
22.8 0.9 0
23.1 0.9 0
23.4 0.9 0
23.7 0.9 0
24 0.9 0
24.3 0.9 0
24.6 0.9 0
24.9 0.9 0
25.2 0.9 0
25.5 0.9 0
25.8 0.9 0
26.1 0.9 0
26.4 0.9 0
26.7 0.9 0
27 0.9 0
27.3 0.9 0
27.6 0.9 0
27.9 0.9 0
28.2 0.9 0
28.5 0.9 0
28.8 0.9 0
29.1 0.9 0
29.4 0.9 0
29.7 0.9 0
30 0.9 0
30.3 0.9 0
0 1 0
0.3 1 0
0.6 1 0
0.9 1 0
1.2 1 0
1.5 1 0
1.8 1 0
2.1 1 0
2.4 1 0
2.7 1 0
3 1 0
3.3 1 0
3.6 1 0
3.9 1 0
4.2 1 0
4.5 1 0
4.8 1 0
5.1 1 0
5.4 1 0
5.7 1 0
6 1 0
6.3 1 0
6.6 1 0
6.9 1 0
7.2 1 0
7.5 1 0
7.8 1 0
8.1 1 0
8.4 1 0
8.7 1 0
9 1 0
9.3 1 0
9.6 1 0
9.9 1 0
10.2 1 0
10.5 1 0
10.8 1 0
11.1 1 0
11.4 1 0
11.7 1 0
12 1 0
12.3 1 0
12.6 1 0
12.9 1 0
13.2 1 0
13.5 1 0
13.8 1 0
14.1 1 0
14.4 1 0
14.7 1 0
15 1 0
15.3 1 0
15.6 1 0
15.9 1 0
16.2 1 0
16.5 1 0
16.8 1 0
17.1 1 0
17.4 1 0
17.7 1 0
18 1 0
18.3 1 0
18.6 1 0
18.9 1 0
19.2 1 0
19.5 1 0
19.8 1 0
20.1 1 0
20.4 1 0
20.7 1 0
21 1 0
21.3 1 0
21.6 1 0
21.9 1 0
22.2 1 0
22.5 1 0
22.8 1 0
23.1 1 0
23.4 1 0
23.7 1 0
24 1 0
24.3 1 0
24.6 1 0
24.9 1 0
25.2 1 0
25.5 1 0
25.8 1 0
26.1 1 0
26.4 1 0
26.7 1 0
27 1 0
27.3 1 0
27.6 1 0
27.9 1 0
28.2 1 0
28.5 1 0
28.8 1 0
29.1 1 0
29.4 1 0
29.7 1 0
30 1 0
30.3 1 0
0 1.1 0
0.3 1.1 0
0.6 1.1 0
0.9 1.1 0
1.2 1.1 0
1.5 1.1 0
1.8 1.1 0
2.1 1.1 0
2.4 1.1 0
2.7 1.1 0
3 1.1 0
3.3 1.1 0
3.6 1.1 0
3.9 1.1 0
4.2 1.1 0
4.5 1.1 0
4.8 1.1 0
5.1 1.1 0
5.4 1.1 0
5.7 1.1 0
6 1.1 0
6.3 1.1 0
6.6 1.1 0
6.9 1.1 0
7.2 1.1 0
7.5 1.1 0
7.8 1.1 0
8.1 1.1 0
8.4 1.1 0
8.7 1.1 0
9 1.1 0
9.3 1.1 0
9.6 1.1 0
9.9 1.1 0
10.2 1.1 0
10.5 1.1 0
10.8 1.1 0
11.1 1.1 0
11.4 1.1 0
11.7 1.1 0
12 1.1 0
12.3 1.1 0
12.6 1.1 0
12.9 1.1 0
13.2 1.1 0
13.5 1.1 0
13.8 1.1 0
14.1 1.1 0
14.4 1.1 0
14.7 1.1 0
15 1.1 0
15.3 1.1 0
15.6 1.1 0
15.9 1.1 0
16.2 1.1 0
16.5 1.1 0
16.8 1.1 0
17.1 1.1 0
17.4 1.1 0
17.7 1.1 0
18 1.1 0
18.3 1.1 0
18.6 1.1 0
18.9 1.1 0
19.2 1.1 0
19.5 1.1 0
19.8 1.1 0
20.1 1.1 0
20.4 1.1 0
20.7 1.1 0
21 1.1 0
21.3 1.1 0
21.6 1.1 0
21.9 1.1 0
22.2 1.1 0
22.5 1.1 0
22.8 1.1 0
23.1 1.1 0
23.4 1.1 0
23.7 1.1 0
24 1.1 0
24.3 1.1 0
24.6 1.1 0
24.9 1.1 0
25.2 1.1 0
25.5 1.1 0
25.8 1.1 0
26.1 1.1 0
26.4 1.1 0
26.7 1.1 0
27 1.1 0
27.3 1.1 0
27.6 1.1 0
27.9 1.1 0
28.2 1.1 0
28.5 1.1 0
28.8 1.1 0
29.1 1.1 0
29.4 1.1 0
29.7 1.1 0
30 1.1 0
30.3 1.1 0

POINT_DATA 1224

SCALARS u double
LOOKUP_TABLE default
-1
-0.890155
-0.775928
-0.678686
-0.600314
-0.539058
-0.492138
-0.456612
-0.429788
-0.409424
-0.39377
-0.381517
-0.37172
-0.363712
-0.357032
-0.351366
-0.346508
-0.342323
-0.33873
-0.335675
-0.333122
-0.331038
-0.329384
-0.328114
-0.327173
-0.3265
-0.326038
-0.325733
-0.325539
-0.325421
-0.325352
-0.325312
-0.325291
-0.32528
-0.325274
-0.325272
-0.32527
-0.32527
-0.32527
-0.32527
-0.32527
-0.32527
-0.32527
-0.32527
-0.32527
-0.32527
-0.32527
-0.32527
-0.32527
-0.32527
-0.32527
-0.32527
-0.32527
-0.32527
-0.32527
-0.32527
-0.32527
-0.32527
-0.32527
-0.32527
-0.32527
-0.32527
-0.32527
-0.32527
-0.32527
-0.32527
-0.32527
-0.32527
-0.32527
-0.32527
-0.32527
-0.32527
-0.32527
-0.32527
-0.32527
-0.32527
-0.32527
-0.32527
-0.32527
-0.32527
-0.32527
-0.32527
-0.32527
-0.32527
-0.32527
-0.32527
-0.32527
-0.32527
-0.32527
-0.32527
-0.32527
-0.32527
-0.32527
-0.32527
-0.32527
-0.325271
-0.325271
-0.325277
-0.325285
-0.325309
-0.325309
-1
1
0.890155
0.775928
0.678686
0.600314
0.539058
0.492138
0.456612
0.429788
0.409424
0.39377
0.381517
0.37172
0.363712
0.357032
0.351366
0.346508
0.342323
0.33873
0.335675
0.333122
0.331038
0.329384
0.328114
0.327173
0.3265
0.326038
0.325733
0.325539
0.325421
0.325352
0.325312
0.325291
0.32528
0.325274
0.325272
0.32527
0.32527
0.32527
0.32527
0.32527
0.32527
0.32527
0.32527
0.32527
0.32527
0.32527
0.32527
0.32527
0.32527
0.32527
0.32527
0.32527
0.32527
0.32527
0.32527
0.32527
0.32527
0.32527
0.32527
0.32527
0.32527
0.32527
0.32527
0.32527
0.32527
0.32527
0.32527
0.32527
0.32527
0.32527
0.32527
0.32527
0.32527
0.32527
0.32527
0.32527
0.32527
0.32527
0.32527
0.32527
0.32527
0.32527
0.32527
0.32527
0.32527
0.32527
0.32527
0.32527
0.32527
0.32527
0.32527
0.32527
0.32527
0.32527
0.325271
0.325271
0.325277
0.325285
0.325309
0.325309
1
1
1.02798
1.03242
1.02466
1.01102
0.994783
0.977789
0.961059
0.945139
0.930292
0.916614
0.904107
0.89272
0.882381
0.87301
0.864538
0.856913
0.850105
0.844102
0.838899
0.834491
0.830855
0.827947
0.825699
0.824023
0.822819
0.821987
0.821435
0.821083
0.820867
0.82074
0.820668
0.820629
0.820609
0.820599
0.820594
0.820592
0.820591
0.82059
0.82059
0.82059
0.82059
0.82059
0.82059
0.82059
0.82059
0.82059
0.820591
0.820591
0.820591
0.820591
0.820591
0.820591
0.820591
0.820591
0.820591
0.820591
0.820591
0.820591
0.820591
0.820591
0.820591
0.820591
0.820591
0.820591
0.820591
0.820591
0.820591
0.820591
0.820591
0.820591
0.820591
0.820591
0.820591
0.820591
0.820591
0.820591
0.820591
0.820591
0.820591
0.820591
0.820591
0.820591
0.820591
0.820591
0.820591
0.820591
0.820591
0.820591
0.820591
0.820591
0.820591
0.820591
0.820591
0.820591
0.820592
0.820592
0.820598
0.820595
0.820707
0.820707
1
1
1.03305
1.06793
1.0968
1.11906
1.13542
1.14691
1.1546
1.15942
1.16214
1.16336
1.1635
1.16291
1.1618
1.16037
1.15872
1.15695
1.15515
1.15336
1.15165
1.15006
1.14862
1.14737
1.1463
1.14544
1.14475
1.14423
1.14386
1.14359
1.14341
1.1433
1.14323
1.14318
1.14316
1.14315
1.14314
1.14313
1.14313
1.14313
1.14313
1.14313
1.14313
1.14313
1.14313
1.14313
1.14313
1.14313
1.14313
1.14313
1.14313
1.14313
1.14313
1.14313
1.14313
1.14313
1.14313
1.14313
1.14313
1.14313
1.14313
1.14313
1.14313
1.14313
1.14313
1.14313
1.14313
1.14313
1.14313
1.14313
1.14313
1.14313
1.14313
1.14313
1.14313
1.14313
1.14313
1.14313
1.14313
1.14313
1.14313
1.14313
1.14313
1.14313
1.14313
1.14313
1.14313
1.14313
1.14313
1.14313
1.14313
1.14313
1.14313
1.14313
1.14313
1.14313
1.14313
1.14313
1.14313
1.14313
1.14318
1.14318
1
1
1.02627
1.06424
1.10183
1.13558
1.16458
1.18891
1.20913
1.22592
1.23995
1.25177
1.26185
1.27053
1.2781
1.28474
1.2906
1.29577
1.30031
1.30427
1.30766
1.31051
1.31283
1.31466
1.31606
1.31709
1.31782
1.3183
1.31862
1.31881
1.31892
1.31898
1.31901
1.31903
1.31904
1.31904
1.31904
1.31904
1.31904
1.31904
1.31904
1.31904
1.31904
1.31904
1.31904
1.31904
1.31904
1.31904
1.31904
1.31904
1.31904
1.31904
1.31904
1.31904
1.31904
1.31904
1.31904
1.31904
1.31904
1.31904
1.31904
1.31904
1.31904
1.31904
1.31904
1.31904
1.31904
1.31904
1.31904
1.31904
1.31904
1.31904
1.31904
1.31904
1.31904
1.31904
1.31904
1.31904
1.31904
1.31904
1.31904
1.31904
1.31904
1.31904
1.31904
1.31904
1.31904
1.31904
1.31904
1.31904
1.31904
1.31904
1.31904
1.31904
1.31904
1.31904
1.31904
1.31904
1.31903
1.31903
1.31897
1.31897
1
1
1.02256
1.05948
1.09803
1.13402
1.16616
1.19425
1.21859
1.23973
1.25819
1.27449
1.28903
1.30212
1.314
1.32485
1.33478
1.34386
1.35211
1.35953
1.36611
1.37182
1.37666
1.38064
1.38382
1.38628
1.38812
1.38944
1.39036
1.39098
1.39138
1.39163
1.39178
1.39187
1.39192
1.39195
1.39196
1.39197
1.39197
1.39198
1.39198
1.39198
1.39198
1.39198
1.39198
1.39198
1.39198
1.39198
1.39198
1.39198
1.39198
1.39198
1.39198
1.39198
1.39198
1.39198
1.39198
1.39198
1.39198
1.39198
1.39198
1.39198
1.39198
1.39198
1.39198
1.39198
1.39198
1.39198
1.39198
1.39198
1.39198
1.39198
1.39198
1.39198
1.39198
1.39198
1.39198
1.39198
1.39198
1.39198
1.39198
1.39198
1.39198
1.39198
1.39198
1.39198
1.39198
1.39198
1.39198
1.39198
1.39198
1.39198
1.39198
1.39198
1.39198
1.39198
1.39198
1.39198
1.39197
1.39197
1.39184
1.39184
1
1
1.02256
1.05948
1.09803
1.13402
1.16616
1.19425
1.21859
1.23973
1.25819
1.27449
1.28903
1.30212
1.314
1.32485
1.33478
1.34386
1.35211
1.35953
1.36611
1.37182
1.37666
1.38064
1.38382
1.38628
1.38812
1.38944
1.39036
1.39098
1.39138
1.39163
1.39178
1.39187
1.39192
1.39195
1.39196
1.39197
1.39197
1.39198
1.39198
1.39198
1.39198
1.39198
1.39198
1.39198
1.39198
1.39198
1.39198
1.39198
1.39198
1.39198
1.39198
1.39198
1.39198
1.39198
1.39198
1.39198
1.39198
1.39198
1.39198
1.39198
1.39198
1.39198
1.39198
1.39198
1.39198
1.39198
1.39198
1.39198
1.39198
1.39198
1.39198
1.39198
1.39198
1.39198
1.39198
1.39198
1.39198
1.39198
1.39198
1.39198
1.39198
1.39198
1.39198
1.39198
1.39198
1.39198
1.39198
1.39198
1.39198
1.39198
1.39198
1.39198
1.39198
1.39198
1.39198
1.39198
1.39197
1.39197
1.39184
1.39184
1
1
1.02627
1.06424
1.10183
1.13558
1.16458
1.18891
1.20913
1.22592
1.23995
1.25177
1.26185
1.27053
1.2781
1.28474
1.2906
1.29577
1.30031
1.30427
1.30766
1.31051
1.31283
1.31466
1.31607
1.31709
1.31782
1.3183
1.31862
1.31881
1.31892
1.31898
1.31901
1.31903
1.31904
1.31904
1.31904
1.31904
1.31904
1.31904
1.31904
1.31904
1.31904
1.31904
1.31904
1.31904
1.31904
1.31904
1.31904
1.31904
1.31904
1.31904
1.31904
1.31904
1.31904
1.31904
1.31904
1.31904
1.31904
1.31904
1.31904
1.31904
1.31904
1.31904
1.31904
1.31904
1.31904
1.31904
1.31904
1.31904
1.31904
1.31904
1.31904
1.31904
1.31904
1.31904
1.31904
1.31904
1.31904
1.31904
1.31904
1.31904
1.31904
1.31904
1.31904
1.31904
1.31904
1.31904
1.31904
1.31904
1.31904
1.31904
1.31904
1.31904
1.31904
1.31904
1.31904
1.31904
1.31903
1.31903
1.31897
1.31897
1
1
1.03305
1.06793
1.0968
1.11906
1.13542
1.14691
1.1546
1.15942
1.16214
1.16336
1.1635
1.16291
1.1618
1.16037
1.15872
1.15696
1.15515
1.15337
1.15165
1.15006
1.14863
1.14737
1.1463
1.14544
1.14475
1.14423
1.14386
1.14359
1.14341
1.1433
1.14323
1.14318
1.14316
1.14315
1.14314
1.14313
1.14313
1.14313
1.14313
1.14313
1.14313
1.14313
1.14313
1.14313
1.14313
1.14313
1.14313
1.14313
1.14313
1.14313
1.14313
1.14313
1.14313
1.14313
1.14313
1.14313
1.14313
1.14313
1.14313
1.14313
1.14313
1.14313
1.14313
1.14313
1.14313
1.14313
1.14313
1.14313
1.14313
1.14313
1.14313
1.14313
1.14313
1.14313
1.14313
1.14313
1.14313
1.14313
1.14313
1.14313
1.14313
1.14313
1.14313
1.14313
1.14313
1.14313
1.14313
1.14313
1.14313
1.14313
1.14313
1.14313
1.14313
1.14313
1.14313
1.14313
1.14313
1.14313
1.14318
1.14318
1
1
1.02798
1.03242
1.02466
1.01102
0.994783
0.977789
0.96106
0.94514
0.930293
0.916615
0.904107
0.892721
0.882382
0.873011
0.864539
0.856914
0.850106
0.844102
0.8389
0.834491
0.830855
0.827948
0.825699
0.824023
0.822819
0.821988
0.821436
0.821083
0.820868
0.82074
0.820669
0.820629
0.820609
0.820599
0.820594
0.820592
0.820591
0.820591
0.82059
0.82059
0.82059
0.820591
0.820591
0.820591
0.820591
0.820591
0.820591
0.820591
0.820591
0.820591
0.820591
0.820591
0.820591
0.820591
0.820591
0.820591
0.820591
0.820591
0.820591
0.820591
0.820591
0.820591
0.820591
0.820591
0.820591
0.820591
0.820591
0.820591
0.820591
0.820591
0.820591
0.820591
0.820591
0.820591
0.820591
0.820591
0.820591
0.820591
0.820591
0.820591
0.820591
0.820591
0.820591
0.820591
0.820591
0.820591
0.820591
0.820591
0.820591
0.820591
0.820591
0.820591
0.820591
0.820591
0.820591
0.820591
0.820597
0.820594
0.820706
0.820706
1
1
0.890155
0.775928
0.678686
0.600315
0.539058
0.492139
0.456612
0.429788
0.409425
0.39377
0.381517
0.37172
0.363712
0.357032
0.351366
0.346508
0.342324
0.33873
0.335675
0.333122
0.331038
0.329384
0.328114
0.327173
0.326501
0.326039
0.325733
0.32554
0.325421
0.325352
0.325313
0.325291
0.32528
0.325275
0.325272
0.325271
0.32527
0.32527
0.32527
0.32527
0.32527
0.32527
0.32527
0.32527
0.32527
0.32527
0.32527
0.32527
0.32527
0.32527
0.32527
0.32527
0.32527
0.32527
0.32527
0.32527
0.32527
0.32527
0.32527
0.32527
0.32527
0.32527
0.32527
0.32527
0.32527
0.32527
0.32527
0.32527
0.32527
0.32527
0.32527
0.32527
0.32527
0.32527
0.32527
0.32527
0.32527
0.32527
0.32527
0.32527
0.32527
0.32527
0.32527
0.32527
0.32527
0.32527
0.32527
0.32527
0.32527
0.32527
0.32527
0.32527
0.32527
0.32527
0.32527
0.325271
0.325277
0.325285
0.325308
0.325308
1
-1
-0.890155
-0.775928
-0.678686
-0.600315
-0.539058
-0.492139
-0.456612
-0.429788
-0.409425
-0.39377
-0.381517
-0.37172
-0.363712
-0.357032
-0.351366
-0.346508
-0.342324
-0.33873
-0.335675
-0.333122
-0.331038
-0.329384
-0.328114
-0.327173
-0.326501
-0.326039
-0.325733
-0.32554
-0.325421
-0.325352
-0.325313
-0.325291
-0.32528
-0.325275
-0.325272
-0.325271
-0.32527
-0.32527
-0.32527
-0.32527
-0.32527
-0.32527
-0.32527
-0.32527
-0.32527
-0.32527
-0.32527
-0.32527
-0.32527
-0.32527
-0.32527
-0.32527
-0.32527
-0.32527
-0.32527
-0.32527
-0.32527
-0.32527
-0.32527
-0.32527
-0.32527
-0.32527
-0.32527
-0.32527
-0.32527
-0.32527
-0.32527
-0.32527
-0.32527
-0.32527
-0.32527
-0.32527
-0.32527
-0.32527
-0.32527
-0.32527
-0.32527
-0.32527
-0.32527
-0.32527
-0.32527
-0.32527
-0.32527
-0.32527
-0.32527
-0.32527
-0.32527
-0.32527
-0.32527
-0.32527
-0.32527
-0.32527
-0.32527
-0.32527
-0.32527
-0.325271
-0.325277
-0.325285
-0.325308
-0.325308
-1
