# vtk DataFile Version 2.0
FlowField
ASCII
DATASET STRUCTURED_GRID
DIMENSIONS 102 1 12 
POINTS 1224 double
0 0 0
0.4 0 0
0.8 0 0
1.2 0 0
1.6 0 0
2 0 0
2.4 0 0
2.8 0 0
3.2 0 0
3.6 0 0
4 0 0
4.4 0 0
4.8 0 0
5.2 0 0
5.6 0 0
6 0 0
6.4 0 0
6.8 0 0
7.2 0 0
7.6 0 0
8 0 0
8.4 0 0
8.8 0 0
9.2 0 0
9.6 0 0
10 0 0
10.4 0 0
10.8 0 0
11.2 0 0
11.6 0 0
12 0 0
12.4 0 0
12.8 0 0
13.2 0 0
13.6 0 0
14 0 0
14.4 0 0
14.8 0 0
15.2 0 0
15.6 0 0
16 0 0
16.4 0 0
16.8 0 0
17.2 0 0
17.6 0 0
18 0 0
18.4 0 0
18.8 0 0
19.2 0 0
19.6 0 0
20 0 0
20.4 0 0
20.8 0 0
21.2 0 0
21.6 0 0
22 0 0
22.4 0 0
22.8 0 0
23.2 0 0
23.6 0 0
24 0 0
24.4 0 0
24.8 0 0
25.2 0 0
25.6 0 0
26 0 0
26.4 0 0
26.8 0 0
27.2 0 0
27.6 0 0
28 0 0
28.4 0 0
28.8 0 0
29.2 0 0
29.6 0 0
30 0 0
30.4 0 0
30.8 0 0
31.2 0 0
31.6 0 0
32 0 0
32.4 0 0
32.8 0 0
33.2 0 0
33.6 0 0
34 0 0
34.4 0 0
34.8 0 0
35.2 0 0
35.6 0 0
36 0 0
36.4 0 0
36.8 0 0
37.2 0 0
37.6 0 0
38 0 0
38.4 0 0
38.8 0 0
39.2 0 0
39.6 0 0
40 0 0
40.4 0 0
0 0.1 0
0.4 0.1 0
0.8 0.1 0
1.2 0.1 0
1.6 0.1 0
2 0.1 0
2.4 0.1 0
2.8 0.1 0
3.2 0.1 0
3.6 0.1 0
4 0.1 0
4.4 0.1 0
4.8 0.1 0
5.2 0.1 0
5.6 0.1 0
6 0.1 0
6.4 0.1 0
6.8 0.1 0
7.2 0.1 0
7.6 0.1 0
8 0.1 0
8.4 0.1 0
8.8 0.1 0
9.2 0.1 0
9.6 0.1 0
10 0.1 0
10.4 0.1 0
10.8 0.1 0
11.2 0.1 0
11.6 0.1 0
12 0.1 0
12.4 0.1 0
12.8 0.1 0
13.2 0.1 0
13.6 0.1 0
14 0.1 0
14.4 0.1 0
14.8 0.1 0
15.2 0.1 0
15.6 0.1 0
16 0.1 0
16.4 0.1 0
16.8 0.1 0
17.2 0.1 0
17.6 0.1 0
18 0.1 0
18.4 0.1 0
18.8 0.1 0
19.2 0.1 0
19.6 0.1 0
20 0.1 0
20.4 0.1 0
20.8 0.1 0
21.2 0.1 0
21.6 0.1 0
22 0.1 0
22.4 0.1 0
22.8 0.1 0
23.2 0.1 0
23.6 0.1 0
24 0.1 0
24.4 0.1 0
24.8 0.1 0
25.2 0.1 0
25.6 0.1 0
26 0.1 0
26.4 0.1 0
26.8 0.1 0
27.2 0.1 0
27.6 0.1 0
28 0.1 0
28.4 0.1 0
28.8 0.1 0
29.2 0.1 0
29.6 0.1 0
30 0.1 0
30.4 0.1 0
30.8 0.1 0
31.2 0.1 0
31.6 0.1 0
32 0.1 0
32.4 0.1 0
32.8 0.1 0
33.2 0.1 0
33.6 0.1 0
34 0.1 0
34.4 0.1 0
34.8 0.1 0
35.2 0.1 0
35.6 0.1 0
36 0.1 0
36.4 0.1 0
36.8 0.1 0
37.2 0.1 0
37.6 0.1 0
38 0.1 0
38.4 0.1 0
38.8 0.1 0
39.2 0.1 0
39.6 0.1 0
40 0.1 0
40.4 0.1 0
0 0.2 0
0.4 0.2 0
0.8 0.2 0
1.2 0.2 0
1.6 0.2 0
2 0.2 0
2.4 0.2 0
2.8 0.2 0
3.2 0.2 0
3.6 0.2 0
4 0.2 0
4.4 0.2 0
4.8 0.2 0
5.2 0.2 0
5.6 0.2 0
6 0.2 0
6.4 0.2 0
6.8 0.2 0
7.2 0.2 0
7.6 0.2 0
8 0.2 0
8.4 0.2 0
8.8 0.2 0
9.2 0.2 0
9.6 0.2 0
10 0.2 0
10.4 0.2 0
10.8 0.2 0
11.2 0.2 0
11.6 0.2 0
12 0.2 0
12.4 0.2 0
12.8 0.2 0
13.2 0.2 0
13.6 0.2 0
14 0.2 0
14.4 0.2 0
14.8 0.2 0
15.2 0.2 0
15.6 0.2 0
16 0.2 0
16.4 0.2 0
16.8 0.2 0
17.2 0.2 0
17.6 0.2 0
18 0.2 0
18.4 0.2 0
18.8 0.2 0
19.2 0.2 0
19.6 0.2 0
20 0.2 0
20.4 0.2 0
20.8 0.2 0
21.2 0.2 0
21.6 0.2 0
22 0.2 0
22.4 0.2 0
22.8 0.2 0
23.2 0.2 0
23.6 0.2 0
24 0.2 0
24.4 0.2 0
24.8 0.2 0
25.2 0.2 0
25.6 0.2 0
26 0.2 0
26.4 0.2 0
26.8 0.2 0
27.2 0.2 0
27.6 0.2 0
28 0.2 0
28.4 0.2 0
28.8 0.2 0
29.2 0.2 0
29.6 0.2 0
30 0.2 0
30.4 0.2 0
30.8 0.2 0
31.2 0.2 0
31.6 0.2 0
32 0.2 0
32.4 0.2 0
32.8 0.2 0
33.2 0.2 0
33.6 0.2 0
34 0.2 0
34.4 0.2 0
34.8 0.2 0
35.2 0.2 0
35.6 0.2 0
36 0.2 0
36.4 0.2 0
36.8 0.2 0
37.2 0.2 0
37.6 0.2 0
38 0.2 0
38.4 0.2 0
38.8 0.2 0
39.2 0.2 0
39.6 0.2 0
40 0.2 0
40.4 0.2 0
0 0.3 0
0.4 0.3 0
0.8 0.3 0
1.2 0.3 0
1.6 0.3 0
2 0.3 0
2.4 0.3 0
2.8 0.3 0
3.2 0.3 0
3.6 0.3 0
4 0.3 0
4.4 0.3 0
4.8 0.3 0
5.2 0.3 0
5.6 0.3 0
6 0.3 0
6.4 0.3 0
6.8 0.3 0
7.2 0.3 0
7.6 0.3 0
8 0.3 0
8.4 0.3 0
8.8 0.3 0
9.2 0.3 0
9.6 0.3 0
10 0.3 0
10.4 0.3 0
10.8 0.3 0
11.2 0.3 0
11.6 0.3 0
12 0.3 0
12.4 0.3 0
12.8 0.3 0
13.2 0.3 0
13.6 0.3 0
14 0.3 0
14.4 0.3 0
14.8 0.3 0
15.2 0.3 0
15.6 0.3 0
16 0.3 0
16.4 0.3 0
16.8 0.3 0
17.2 0.3 0
17.6 0.3 0
18 0.3 0
18.4 0.3 0
18.8 0.3 0
19.2 0.3 0
19.6 0.3 0
20 0.3 0
20.4 0.3 0
20.8 0.3 0
21.2 0.3 0
21.6 0.3 0
22 0.3 0
22.4 0.3 0
22.8 0.3 0
23.2 0.3 0
23.6 0.3 0
24 0.3 0
24.4 0.3 0
24.8 0.3 0
25.2 0.3 0
25.6 0.3 0
26 0.3 0
26.4 0.3 0
26.8 0.3 0
27.2 0.3 0
27.6 0.3 0
28 0.3 0
28.4 0.3 0
28.8 0.3 0
29.2 0.3 0
29.6 0.3 0
30 0.3 0
30.4 0.3 0
30.8 0.3 0
31.2 0.3 0
31.6 0.3 0
32 0.3 0
32.4 0.3 0
32.8 0.3 0
33.2 0.3 0
33.6 0.3 0
34 0.3 0
34.4 0.3 0
34.8 0.3 0
35.2 0.3 0
35.6 0.3 0
36 0.3 0
36.4 0.3 0
36.8 0.3 0
37.2 0.3 0
37.6 0.3 0
38 0.3 0
38.4 0.3 0
38.8 0.3 0
39.2 0.3 0
39.6 0.3 0
40 0.3 0
40.4 0.3 0
0 0.4 0
0.4 0.4 0
0.8 0.4 0
1.2 0.4 0
1.6 0.4 0
2 0.4 0
2.4 0.4 0
2.8 0.4 0
3.2 0.4 0
3.6 0.4 0
4 0.4 0
4.4 0.4 0
4.8 0.4 0
5.2 0.4 0
5.6 0.4 0
6 0.4 0
6.4 0.4 0
6.8 0.4 0
7.2 0.4 0
7.6 0.4 0
8 0.4 0
8.4 0.4 0
8.8 0.4 0
9.2 0.4 0
9.6 0.4 0
10 0.4 0
10.4 0.4 0
10.8 0.4 0
11.2 0.4 0
11.6 0.4 0
12 0.4 0
12.4 0.4 0
12.8 0.4 0
13.2 0.4 0
13.6 0.4 0
14 0.4 0
14.4 0.4 0
14.8 0.4 0
15.2 0.4 0
15.6 0.4 0
16 0.4 0
16.4 0.4 0
16.8 0.4 0
17.2 0.4 0
17.6 0.4 0
18 0.4 0
18.4 0.4 0
18.8 0.4 0
19.2 0.4 0
19.6 0.4 0
20 0.4 0
20.4 0.4 0
20.8 0.4 0
21.2 0.4 0
21.6 0.4 0
22 0.4 0
22.4 0.4 0
22.8 0.4 0
23.2 0.4 0
23.6 0.4 0
24 0.4 0
24.4 0.4 0
24.8 0.4 0
25.2 0.4 0
25.6 0.4 0
26 0.4 0
26.4 0.4 0
26.8 0.4 0
27.2 0.4 0
27.6 0.4 0
28 0.4 0
28.4 0.4 0
28.8 0.4 0
29.2 0.4 0
29.6 0.4 0
30 0.4 0
30.4 0.4 0
30.8 0.4 0
31.2 0.4 0
31.6 0.4 0
32 0.4 0
32.4 0.4 0
32.8 0.4 0
33.2 0.4 0
33.6 0.4 0
34 0.4 0
34.4 0.4 0
34.8 0.4 0
35.2 0.4 0
35.6 0.4 0
36 0.4 0
36.4 0.4 0
36.8 0.4 0
37.2 0.4 0
37.6 0.4 0
38 0.4 0
38.4 0.4 0
38.8 0.4 0
39.2 0.4 0
39.6 0.4 0
40 0.4 0
40.4 0.4 0
0 0.5 0
0.4 0.5 0
0.8 0.5 0
1.2 0.5 0
1.6 0.5 0
2 0.5 0
2.4 0.5 0
2.8 0.5 0
3.2 0.5 0
3.6 0.5 0
4 0.5 0
4.4 0.5 0
4.8 0.5 0
5.2 0.5 0
5.6 0.5 0
6 0.5 0
6.4 0.5 0
6.8 0.5 0
7.2 0.5 0
7.6 0.5 0
8 0.5 0
8.4 0.5 0
8.8 0.5 0
9.2 0.5 0
9.6 0.5 0
10 0.5 0
10.4 0.5 0
10.8 0.5 0
11.2 0.5 0
11.6 0.5 0
12 0.5 0
12.4 0.5 0
12.8 0.5 0
13.2 0.5 0
13.6 0.5 0
14 0.5 0
14.4 0.5 0
14.8 0.5 0
15.2 0.5 0
15.6 0.5 0
16 0.5 0
16.4 0.5 0
16.8 0.5 0
17.2 0.5 0
17.6 0.5 0
18 0.5 0
18.4 0.5 0
18.8 0.5 0
19.2 0.5 0
19.6 0.5 0
20 0.5 0
20.4 0.5 0
20.8 0.5 0
21.2 0.5 0
21.6 0.5 0
22 0.5 0
22.4 0.5 0
22.8 0.5 0
23.2 0.5 0
23.6 0.5 0
24 0.5 0
24.4 0.5 0
24.8 0.5 0
25.2 0.5 0
25.6 0.5 0
26 0.5 0
26.4 0.5 0
26.8 0.5 0
27.2 0.5 0
27.6 0.5 0
28 0.5 0
28.4 0.5 0
28.8 0.5 0
29.2 0.5 0
29.6 0.5 0
30 0.5 0
30.4 0.5 0
30.8 0.5 0
31.2 0.5 0
31.6 0.5 0
32 0.5 0
32.4 0.5 0
32.8 0.5 0
33.2 0.5 0
33.6 0.5 0
34 0.5 0
34.4 0.5 0
34.8 0.5 0
35.2 0.5 0
35.6 0.5 0
36 0.5 0
36.4 0.5 0
36.8 0.5 0
37.2 0.5 0
37.6 0.5 0
38 0.5 0
38.4 0.5 0
38.8 0.5 0
39.2 0.5 0
39.6 0.5 0
40 0.5 0
40.4 0.5 0
0 0.6 0
0.4 0.6 0
0.8 0.6 0
1.2 0.6 0
1.6 0.6 0
2 0.6 0
2.4 0.6 0
2.8 0.6 0
3.2 0.6 0
3.6 0.6 0
4 0.6 0
4.4 0.6 0
4.8 0.6 0
5.2 0.6 0
5.6 0.6 0
6 0.6 0
6.4 0.6 0
6.8 0.6 0
7.2 0.6 0
7.6 0.6 0
8 0.6 0
8.4 0.6 0
8.8 0.6 0
9.2 0.6 0
9.6 0.6 0
10 0.6 0
10.4 0.6 0
10.8 0.6 0
11.2 0.6 0
11.6 0.6 0
12 0.6 0
12.4 0.6 0
12.8 0.6 0
13.2 0.6 0
13.6 0.6 0
14 0.6 0
14.4 0.6 0
14.8 0.6 0
15.2 0.6 0
15.6 0.6 0
16 0.6 0
16.4 0.6 0
16.8 0.6 0
17.2 0.6 0
17.6 0.6 0
18 0.6 0
18.4 0.6 0
18.8 0.6 0
19.2 0.6 0
19.6 0.6 0
20 0.6 0
20.4 0.6 0
20.8 0.6 0
21.2 0.6 0
21.6 0.6 0
22 0.6 0
22.4 0.6 0
22.8 0.6 0
23.2 0.6 0
23.6 0.6 0
24 0.6 0
24.4 0.6 0
24.8 0.6 0
25.2 0.6 0
25.6 0.6 0
26 0.6 0
26.4 0.6 0
26.8 0.6 0
27.2 0.6 0
27.6 0.6 0
28 0.6 0
28.4 0.6 0
28.8 0.6 0
29.2 0.6 0
29.6 0.6 0
30 0.6 0
30.4 0.6 0
30.8 0.6 0
31.2 0.6 0
31.6 0.6 0
32 0.6 0
32.4 0.6 0
32.8 0.6 0
33.2 0.6 0
33.6 0.6 0
34 0.6 0
34.4 0.6 0
34.8 0.6 0
35.2 0.6 0
35.6 0.6 0
36 0.6 0
36.4 0.6 0
36.8 0.6 0
37.2 0.6 0
37.6 0.6 0
38 0.6 0
38.4 0.6 0
38.8 0.6 0
39.2 0.6 0
39.6 0.6 0
40 0.6 0
40.4 0.6 0
0 0.7 0
0.4 0.7 0
0.8 0.7 0
1.2 0.7 0
1.6 0.7 0
2 0.7 0
2.4 0.7 0
2.8 0.7 0
3.2 0.7 0
3.6 0.7 0
4 0.7 0
4.4 0.7 0
4.8 0.7 0
5.2 0.7 0
5.6 0.7 0
6 0.7 0
6.4 0.7 0
6.8 0.7 0
7.2 0.7 0
7.6 0.7 0
8 0.7 0
8.4 0.7 0
8.8 0.7 0
9.2 0.7 0
9.6 0.7 0
10 0.7 0
10.4 0.7 0
10.8 0.7 0
11.2 0.7 0
11.6 0.7 0
12 0.7 0
12.4 0.7 0
12.8 0.7 0
13.2 0.7 0
13.6 0.7 0
14 0.7 0
14.4 0.7 0
14.8 0.7 0
15.2 0.7 0
15.6 0.7 0
16 0.7 0
16.4 0.7 0
16.8 0.7 0
17.2 0.7 0
17.6 0.7 0
18 0.7 0
18.4 0.7 0
18.8 0.7 0
19.2 0.7 0
19.6 0.7 0
20 0.7 0
20.4 0.7 0
20.8 0.7 0
21.2 0.7 0
21.6 0.7 0
22 0.7 0
22.4 0.7 0
22.8 0.7 0
23.2 0.7 0
23.6 0.7 0
24 0.7 0
24.4 0.7 0
24.8 0.7 0
25.2 0.7 0
25.6 0.7 0
26 0.7 0
26.4 0.7 0
26.8 0.7 0
27.2 0.7 0
27.6 0.7 0
28 0.7 0
28.4 0.7 0
28.8 0.7 0
29.2 0.7 0
29.6 0.7 0
30 0.7 0
30.4 0.7 0
30.8 0.7 0
31.2 0.7 0
31.6 0.7 0
32 0.7 0
32.4 0.7 0
32.8 0.7 0
33.2 0.7 0
33.6 0.7 0
34 0.7 0
34.4 0.7 0
34.8 0.7 0
35.2 0.7 0
35.6 0.7 0
36 0.7 0
36.4 0.7 0
36.8 0.7 0
37.2 0.7 0
37.6 0.7 0
38 0.7 0
38.4 0.7 0
38.8 0.7 0
39.2 0.7 0
39.6 0.7 0
40 0.7 0
40.4 0.7 0
0 0.8 0
0.4 0.8 0
0.8 0.8 0
1.2 0.8 0
1.6 0.8 0
2 0.8 0
2.4 0.8 0
2.8 0.8 0
3.2 0.8 0
3.6 0.8 0
4 0.8 0
4.4 0.8 0
4.8 0.8 0
5.2 0.8 0
5.6 0.8 0
6 0.8 0
6.4 0.8 0
6.8 0.8 0
7.2 0.8 0
7.6 0.8 0
8 0.8 0
8.4 0.8 0
8.8 0.8 0
9.2 0.8 0
9.6 0.8 0
10 0.8 0
10.4 0.8 0
10.8 0.8 0
11.2 0.8 0
11.6 0.8 0
12 0.8 0
12.4 0.8 0
12.8 0.8 0
13.2 0.8 0
13.6 0.8 0
14 0.8 0
14.4 0.8 0
14.8 0.8 0
15.2 0.8 0
15.6 0.8 0
16 0.8 0
16.4 0.8 0
16.8 0.8 0
17.2 0.8 0
17.6 0.8 0
18 0.8 0
18.4 0.8 0
18.8 0.8 0
19.2 0.8 0
19.6 0.8 0
20 0.8 0
20.4 0.8 0
20.8 0.8 0
21.2 0.8 0
21.6 0.8 0
22 0.8 0
22.4 0.8 0
22.8 0.8 0
23.2 0.8 0
23.6 0.8 0
24 0.8 0
24.4 0.8 0
24.8 0.8 0
25.2 0.8 0
25.6 0.8 0
26 0.8 0
26.4 0.8 0
26.8 0.8 0
27.2 0.8 0
27.6 0.8 0
28 0.8 0
28.4 0.8 0
28.8 0.8 0
29.2 0.8 0
29.6 0.8 0
30 0.8 0
30.4 0.8 0
30.8 0.8 0
31.2 0.8 0
31.6 0.8 0
32 0.8 0
32.4 0.8 0
32.8 0.8 0
33.2 0.8 0
33.6 0.8 0
34 0.8 0
34.4 0.8 0
34.8 0.8 0
35.2 0.8 0
35.6 0.8 0
36 0.8 0
36.4 0.8 0
36.8 0.8 0
37.2 0.8 0
37.6 0.8 0
38 0.8 0
38.4 0.8 0
38.8 0.8 0
39.2 0.8 0
39.6 0.8 0
40 0.8 0
40.4 0.8 0
0 0.9 0
0.4 0.9 0
0.8 0.9 0
1.2 0.9 0
1.6 0.9 0
2 0.9 0
2.4 0.9 0
2.8 0.9 0
3.2 0.9 0
3.6 0.9 0
4 0.9 0
4.4 0.9 0
4.8 0.9 0
5.2 0.9 0
5.6 0.9 0
6 0.9 0
6.4 0.9 0
6.8 0.9 0
7.2 0.9 0
7.6 0.9 0
8 0.9 0
8.4 0.9 0
8.8 0.9 0
9.2 0.9 0
9.6 0.9 0
10 0.9 0
10.4 0.9 0
10.8 0.9 0
11.2 0.9 0
11.6 0.9 0
12 0.9 0
12.4 0.9 0
12.8 0.9 0
13.2 0.9 0
13.6 0.9 0
14 0.9 0
14.4 0.9 0
14.8 0.9 0
15.2 0.9 0
15.6 0.9 0
16 0.9 0
16.4 0.9 0
16.8 0.9 0
17.2 0.9 0
17.6 0.9 0
18 0.9 0
18.4 0.9 0
18.8 0.9 0
19.2 0.9 0
19.6 0.9 0
20 0.9 0
20.4 0.9 0
20.8 0.9 0
21.2 0.9 0
21.6 0.9 0
22 0.9 0
22.4 0.9 0
22.8 0.9 0
23.2 0.9 0
23.6 0.9 0
24 0.9 0
24.4 0.9 0
24.8 0.9 0
25.2 0.9 0
25.6 0.9 0
26 0.9 0
26.4 0.9 0
26.8 0.9 0
27.2 0.9 0
27.6 0.9 0
28 0.9 0
28.4 0.9 0
28.8 0.9 0
29.2 0.9 0
29.6 0.9 0
30 0.9 0
30.4 0.9 0
30.8 0.9 0
31.2 0.9 0
31.6 0.9 0
32 0.9 0
32.4 0.9 0
32.8 0.9 0
33.2 0.9 0
33.6 0.9 0
34 0.9 0
34.4 0.9 0
34.8 0.9 0
35.2 0.9 0
35.6 0.9 0
36 0.9 0
36.4 0.9 0
36.8 0.9 0
37.2 0.9 0
37.6 0.9 0
38 0.9 0
38.4 0.9 0
38.8 0.9 0
39.2 0.9 0
39.6 0.9 0
40 0.9 0
40.4 0.9 0
0 1 0
0.4 1 0
0.8 1 0
1.2 1 0
1.6 1 0
2 1 0
2.4 1 0
2.8 1 0
3.2 1 0
3.6 1 0
4 1 0
4.4 1 0
4.8 1 0
5.2 1 0
5.6 1 0
6 1 0
6.4 1 0
6.8 1 0
7.2 1 0
7.6 1 0
8 1 0
8.4 1 0
8.8 1 0
9.2 1 0
9.6 1 0
10 1 0
10.4 1 0
10.8 1 0
11.2 1 0
11.6 1 0
12 1 0
12.4 1 0
12.8 1 0
13.2 1 0
13.6 1 0
14 1 0
14.4 1 0
14.8 1 0
15.2 1 0
15.6 1 0
16 1 0
16.4 1 0
16.8 1 0
17.2 1 0
17.6 1 0
18 1 0
18.4 1 0
18.8 1 0
19.2 1 0
19.6 1 0
20 1 0
20.4 1 0
20.8 1 0
21.2 1 0
21.6 1 0
22 1 0
22.4 1 0
22.8 1 0
23.2 1 0
23.6 1 0
24 1 0
24.4 1 0
24.8 1 0
25.2 1 0
25.6 1 0
26 1 0
26.4 1 0
26.8 1 0
27.2 1 0
27.6 1 0
28 1 0
28.4 1 0
28.8 1 0
29.2 1 0
29.6 1 0
30 1 0
30.4 1 0
30.8 1 0
31.2 1 0
31.6 1 0
32 1 0
32.4 1 0
32.8 1 0
33.2 1 0
33.6 1 0
34 1 0
34.4 1 0
34.8 1 0
35.2 1 0
35.6 1 0
36 1 0
36.4 1 0
36.8 1 0
37.2 1 0
37.6 1 0
38 1 0
38.4 1 0
38.8 1 0
39.2 1 0
39.6 1 0
40 1 0
40.4 1 0
0 1.1 0
0.4 1.1 0
0.8 1.1 0
1.2 1.1 0
1.6 1.1 0
2 1.1 0
2.4 1.1 0
2.8 1.1 0
3.2 1.1 0
3.6 1.1 0
4 1.1 0
4.4 1.1 0
4.8 1.1 0
5.2 1.1 0
5.6 1.1 0
6 1.1 0
6.4 1.1 0
6.8 1.1 0
7.2 1.1 0
7.6 1.1 0
8 1.1 0
8.4 1.1 0
8.8 1.1 0
9.2 1.1 0
9.6 1.1 0
10 1.1 0
10.4 1.1 0
10.8 1.1 0
11.2 1.1 0
11.6 1.1 0
12 1.1 0
12.4 1.1 0
12.8 1.1 0
13.2 1.1 0
13.6 1.1 0
14 1.1 0
14.4 1.1 0
14.8 1.1 0
15.2 1.1 0
15.6 1.1 0
16 1.1 0
16.4 1.1 0
16.8 1.1 0
17.2 1.1 0
17.6 1.1 0
18 1.1 0
18.4 1.1 0
18.8 1.1 0
19.2 1.1 0
19.6 1.1 0
20 1.1 0
20.4 1.1 0
20.8 1.1 0
21.2 1.1 0
21.6 1.1 0
22 1.1 0
22.4 1.1 0
22.8 1.1 0
23.2 1.1 0
23.6 1.1 0
24 1.1 0
24.4 1.1 0
24.8 1.1 0
25.2 1.1 0
25.6 1.1 0
26 1.1 0
26.4 1.1 0
26.8 1.1 0
27.2 1.1 0
27.6 1.1 0
28 1.1 0
28.4 1.1 0
28.8 1.1 0
29.2 1.1 0
29.6 1.1 0
30 1.1 0
30.4 1.1 0
30.8 1.1 0
31.2 1.1 0
31.6 1.1 0
32 1.1 0
32.4 1.1 0
32.8 1.1 0
33.2 1.1 0
33.6 1.1 0
34 1.1 0
34.4 1.1 0
34.8 1.1 0
35.2 1.1 0
35.6 1.1 0
36 1.1 0
36.4 1.1 0
36.8 1.1 0
37.2 1.1 0
37.6 1.1 0
38 1.1 0
38.4 1.1 0
38.8 1.1 0
39.2 1.1 0
39.6 1.1 0
40 1.1 0
40.4 1.1 0

POINT_DATA 1224

SCALARS u double
LOOKUP_TABLE default
-1.15742
-0.842585
-0.620822
-0.489981
-0.418736
-0.380102
-0.357792
-0.343603
-0.333722
-0.326371
-0.320668
-0.316128
-0.312454
-0.309448
-0.306968
-0.304911
-0.303196
-0.301764
-0.30057
-0.299579
-0.298763
-0.298101
-0.297574
-0.297162
-0.296849
-0.296617
-0.29645
-0.296334
-0.296256
-0.296204
-0.296172
-0.296152
-0.29614
-0.296133
-0.296129
-0.296127
-0.296126
-0.296126
-0.296125
-0.296125
-0.296125
-0.296125
-0.296125
-0.296125
-0.296125
-0.296125
-0.296125
-0.296125
-0.296125
-0.296125
-0.296125
-0.296125
-0.296125
-0.296125
-0.296125
-0.296125
-0.296125
-0.296125
-0.296125
-0.296125
-0.296125
-0.296125
-0.296125
-0.296125
-0.296125
-0.296125
-0.296125
-0.296125
-0.296125
-0.296125
-0.296125
-0.296125
-0.296125
-0.296125
-0.296125
-0.296125
-0.296125
-0.296125
-0.296125
-0.296125
-0.296125
-0.296125
-0.296125
-0.296125
-0.296125
-0.296125
-0.296125
-0.296125
-0.296125
-0.296125
-0.296125
-0.296125
-0.296125
-0.296125
-0.296125
-0.296125
-0.296125
-0.296126
-0.296125
-0.296128
-0.296128
-1
1.15742
0.842585
0.620822
0.489981
0.418736
0.380102
0.357792
0.343603
0.333722
0.326371
0.320668
0.316128
0.312454
0.309448
0.306968
0.304911
0.303196
0.301764
0.30057
0.299579
0.298763
0.298101
0.297574
0.297162
0.296849
0.296617
0.29645
0.296334
0.296256
0.296204
0.296172
0.296152
0.29614
0.296133
0.296129
0.296127
0.296126
0.296126
0.296125
0.296125
0.296125
0.296125
0.296125
0.296125
0.296125
0.296125
0.296125
0.296125
0.296125
0.296125
0.296125
0.296125
0.296125
0.296125
0.296125
0.296125
0.296125
0.296125
0.296125
0.296125
0.296125
0.296125
0.296125
0.296125
0.296125
0.296125
0.296125
0.296125
0.296125
0.296125
0.296125
0.296125
0.296125
0.296125
0.296125
0.296125
0.296125
0.296125
0.296125
0.296125
0.296125
0.296125
0.296125
0.296125
0.296125
0.296125
0.296125
0.296125
0.296125
0.296125
0.296125
0.296125
0.296125
0.296125
0.296125
0.296125
0.296125
0.296126
0.296125
0.296128
0.296128
1
0.976268
1.02373
1.00214
0.963808
0.926544
0.895175
0.870077
0.850297
0.834697
0.822303
0.812364
0.804317
0.79775
0.79235
0.787885
0.784175
0.781084
0.778504
0.776356
0.774576
0.773115
0.771932
0.770992
0.77026
0.769705
0.769295
0.769
0.768796
0.768658
0.768567
0.76851
0.768475
0.768455
0.768443
0.768436
0.768433
0.768431
0.76843
0.768429
0.768429
0.768429
0.768429
0.768429
0.768429
0.768429
0.768429
0.768429
0.768429
0.768429
0.768429
0.768429
0.768429
0.768429
0.768429
0.768429
0.76843
0.76843
0.76843
0.76843
0.76843
0.76843
0.76843
0.76843
0.76843
0.76843
0.76843
0.76843
0.76843
0.76843
0.76843
0.76843
0.76843
0.76843
0.76843
0.76843
0.76843
0.76843
0.76843
0.76843
0.76843
0.76843
0.76843
0.76843
0.76843
0.76843
0.76843
0.76843
0.76843
0.76843
0.76843
0.76843
0.76843
0.76843
0.76843
0.76843
0.76843
0.76843
0.768431
0.768429
0.768443
0.768443
1
0.95324
1.04676
1.10995
1.14211
1.15506
1.15802
1.15636
1.15284
1.14875
1.14469
1.14094
1.13758
1.13463
1.13209
1.1299
1.12803
1.12644
1.12509
1.12396
1.123
1.12221
1.12156
1.12104
1.12062
1.1203
1.12006
1.11988
1.11975
1.11967
1.11961
1.11957
1.11954
1.11953
1.11952
1.11952
1.11951
1.11951
1.11951
1.11951
1.11951
1.11951
1.11951
1.11951
1.11951
1.11951
1.11951
1.11951
1.11951
1.11951
1.11951
1.11951
1.11951
1.11951
1.11951
1.11951
1.11951
1.11951
1.11951
1.11951
1.11951
1.11951
1.11951
1.11951
1.11951
1.11951
1.11951
1.11951
1.11951
1.11951
1.11951
1.11951
1.11951
1.11951
1.11951
1.11951
1.11951
1.11951
1.11951
1.11951
1.11951
1.11951
1.11951
1.11951
1.11951
1.11951
1.11951
1.11951
1.11951
1.11951
1.11951
1.11951
1.11951
1.11951
1.11951
1.11951
1.11951
1.11951
1.11951
1.11951
1.11952
1.11952
1
0.955191
1.04481
1.13263
1.19618
1.23828
1.26619
1.28547
1.29942
1.30989
1.31796
1.32429
1.32933
1.33338
1.33668
1.33937
1.34159
1.34342
1.34494
1.3462
1.34724
1.34809
1.34878
1.34932
1.34974
1.35005
1.35029
1.35045
1.35056
1.35064
1.35069
1.35072
1.35073
1.35074
1.35075
1.35075
1.35076
1.35076
1.35076
1.35076
1.35076
1.35076
1.35076
1.35076
1.35076
1.35076
1.35076
1.35076
1.35076
1.35076
1.35076
1.35076
1.35076
1.35076
1.35076
1.35076
1.35076
1.35076
1.35076
1.35076
1.35076
1.35076
1.35076
1.35076
1.35076
1.35076
1.35076
1.35076
1.35076
1.35076
1.35076
1.35076
1.35076
1.35076
1.35076
1.35076
1.35076
1.35076
1.35076
1.35076
1.35076
1.35076
1.35076
1.35076
1.35076
1.35076
1.35076
1.35076
1.35076
1.35076
1.35076
1.35076
1.35076
1.35076
1.35076
1.35076
1.35076
1.35076
1.35076
1.35076
1.35075
1.35075
1
0.957886
1.04211
1.13446
1.20791
1.26138
1.30051
1.33029
1.35384
1.37294
1.38868
1.40174
1.41265
1.42178
1.42944
1.43588
1.4413
1.44586
1.4497
1.45291
1.4556
1.45782
1.45963
1.46108
1.46222
1.46309
1.46375
1.46422
1.46456
1.46479
1.46494
1.46504
1.4651
1.46514
1.46516
1.46517
1.46518
1.46518
1.46518
1.46518
1.46518
1.46518
1.46518
1.46518
1.46518
1.46518
1.46518
1.46518
1.46518
1.46518
1.46518
1.46518
1.46518
1.46518
1.46518
1.46518
1.46518
1.46518
1.46518
1.46518
1.46518
1.46518
1.46518
1.46518
1.46518
1.46518
1.46518
1.46518
1.46518
1.46518
1.46518
1.46518
1.46518
1.46518
1.46518
1.46518
1.46518
1.46518
1.46518
1.46518
1.46518
1.46518
1.46518
1.46518
1.46518
1.46518
1.46518
1.46518
1.46518
1.46518
1.46518
1.46518
1.46518
1.46518
1.46518
1.46518
1.46518
1.46518
1.46518
1.46519
1.46517
1.46517
1
0.957886
1.04211
1.13446
1.20791
1.26138
1.30051
1.33029
1.35384
1.37294
1.38868
1.40174
1.41265
1.42178
1.42944
1.43588
1.4413
1.44586
1.4497
1.45291
1.4556
1.45782
1.45963
1.46108
1.46222
1.46309
1.46375
1.46422
1.46456
1.46479
1.46494
1.46504
1.4651
1.46514
1.46516
1.46517
1.46518
1.46518
1.46518
1.46518
1.46518
1.46518
1.46518
1.46518
1.46518
1.46518
1.46518
1.46518
1.46518
1.46518
1.46518
1.46518
1.46518
1.46518
1.46518
1.46518
1.46518
1.46518
1.46518
1.46518
1.46518
1.46518
1.46518
1.46518
1.46518
1.46518
1.46518
1.46518
1.46518
1.46518
1.46518
1.46518
1.46518
1.46518
1.46518
1.46518
1.46518
1.46518
1.46518
1.46518
1.46518
1.46518
1.46518
1.46518
1.46518
1.46518
1.46518
1.46518
1.46518
1.46518
1.46518
1.46518
1.46518
1.46518
1.46518
1.46518
1.46518
1.46518
1.46518
1.46519
1.46517
1.46517
1
0.955191
1.04481
1.13263
1.19618
1.23828
1.26619
1.28547
1.29942
1.30989
1.31796
1.32429
1.32933
1.33339
1.33668
1.33937
1.34159
1.34342
1.34494
1.34621
1.34724
1.34809
1.34878
1.34932
1.34974
1.35005
1.35029
1.35045
1.35056
1.35064
1.35069
1.35072
1.35073
1.35075
1.35075
1.35075
1.35076
1.35076
1.35076
1.35076
1.35076
1.35076
1.35076
1.35076
1.35076
1.35076
1.35076
1.35076
1.35076
1.35076
1.35076
1.35076
1.35076
1.35076
1.35076
1.35076
1.35076
1.35076
1.35076
1.35076
1.35076
1.35076
1.35076
1.35076
1.35076
1.35076
1.35076
1.35076
1.35076
1.35076
1.35076
1.35076
1.35076
1.35076
1.35076
1.35076
1.35076
1.35076
1.35076
1.35076
1.35076
1.35076
1.35076
1.35076
1.35076
1.35076
1.35076
1.35076
1.35076
1.35076
1.35076
1.35076
1.35076
1.35076
1.35076
1.35076
1.35076
1.35076
1.35076
1.35076
1.35075
1.35075
1
0.95324
1.04676
1.10995
1.14211
1.15506
1.15802
1.15637
1.15284
1.14875
1.14469
1.14094
1.13758
1.13463
1.13209
1.1299
1.12803
1.12644
1.12509
1.12396
1.123
1.12221
1.12156
1.12104
1.12062
1.1203
1.12006
1.11988
1.11975
1.11967
1.11961
1.11957
1.11954
1.11953
1.11952
1.11952
1.11951
1.11951
1.11951
1.11951
1.11951
1.11951
1.11951
1.11951
1.11951
1.11951
1.11951
1.11951
1.11951
1.11951
1.11951
1.11951
1.11951
1.11951
1.11951
1.11951
1.11951
1.11951
1.11951
1.11951
1.11951
1.11951
1.11951
1.11951
1.11951
1.11951
1.11951
1.11951
1.11951
1.11951
1.11951
1.11951
1.11951
1.11951
1.11951
1.11951
1.11951
1.11951
1.11951
1.11951
1.11951
1.11951
1.11951
1.11951
1.11951
1.11951
1.11951
1.11951
1.11951
1.11951
1.11951
1.11951
1.11951
1.11951
1.11951
1.11951
1.11951
1.11951
1.11951
1.11951
1.11952
1.11952
1
0.976268
1.02373
1.00214
0.963808
0.926544
0.895175
0.870078
0.850298
0.834698
0.822304
0.812364
0.804318
0.79775
0.792351
0.787886
0.784176
0.781084
0.778505
0.776356
0.774576
0.773115
0.771933
0.770992
0.770261
0.769705
0.769295
0.769001
0.768796
0.768658
0.768568
0.768511
0.768476
0.768455
0.768443
0.768437
0.768433
0.768431
0.76843
0.76843
0.76843
0.76843
0.76843
0.76843
0.76843
0.76843
0.76843
0.76843
0.76843
0.76843
0.76843
0.76843
0.76843
0.76843
0.76843
0.76843
0.76843
0.76843
0.76843
0.76843
0.76843
0.76843
0.76843
0.76843
0.76843
0.76843
0.76843
0.76843
0.76843
0.76843
0.76843
0.76843
0.76843
0.76843
0.76843
0.76843
0.76843
0.76843
0.76843
0.76843
0.76843
0.76843
0.76843
0.76843
0.76843
0.76843
0.76843
0.76843
0.76843
0.76843
0.76843
0.76843
0.76843
0.76843
0.76843
0.76843
0.76843
0.76843
0.76843
0.768429
0.768443
0.768443
1
1.15742
0.842585
0.620822
0.489981
0.418736
0.380103
0.357792
0.343604
0.333723
0.326371
0.320668
0.316128
0.312454
0.309448
0.306969
0.304911
0.303196
0.301765
0.300571
0.299579
0.298764
0.298102
0.297574
0.297162
0.296849
0.296617
0.29645
0.296334
0.296256
0.296204
0.296172
0.296152
0.29614
0.296133
0.296129
0.296127
0.296126
0.296126
0.296126
0.296125
0.296125
0.296125
0.296125
0.296125
0.296125
0.296125
0.296125
0.296125
0.296125
0.296125
0.296125
0.296125
0.296125
0.296125
0.296125
0.296125
0.296125
0.296125
0.296125
0.296125
0.296125
0.296125
0.296125
0.296125
0.296125
0.296125
0.296125
0.296125
0.296125
0.296125
0.296125
0.296125
0.296125
0.296125
0.296125
0.296125
0.296125
0.296125
0.296125
0.296125
0.296125
0.296125
0.296125
0.296125
0.296125
0.296125
0.296125
0.296125
0.296125
0.296125
0.296125
0.296125
0.296125
0.296125
0.296125
0.296125
0.296125
0.296126
0.296125
0.296128
0.296128
1
-1.15742
-0.842585
-0.620822
-0.489981
-0.418736
-0.380103
-0.357792
-0.343604
-0.333723
-0.326371
-0.320668
-0.316128
-0.312454
-0.309448
-0.306969
-0.304911
-0.303196
-0.301765
-0.300571
-0.299579
-0.298764
-0.298102
-0.297574
-0.297162
-0.296849
-0.296617
-0.29645
-0.296334
-0.296256
-0.296204
-0.296172
-0.296152
-0.29614
-0.296133
-0.296129
-0.296127
-0.296126
-0.296126
-0.296126
-0.296125
-0.296125
-0.296125
-0.296125
-0.296125
-0.296125
-0.296125
-0.296125
-0.296125
-0.296125
-0.296125
-0.296125
-0.296125
-0.296125
-0.296125
-0.296125
-0.296125
-0.296125
-0.296125
-0.296125
-0.296125
-0.296125
-0.296125
-0.296125
-0.296125
-0.296125
-0.296125
-0.296125
-0.296125
-0.296125
-0.296125
-0.296125
-0.296125
-0.296125
-0.296125
-0.296125
-0.296125
-0.296125
-0.296125
-0.296125
-0.296125
-0.296125
-0.296125
-0.296125
-0.296125
-0.296125
-0.296125
-0.296125
-0.296125
-0.296125
-0.296125
-0.296125
-0.296125
-0.296125
-0.296125
-0.296125
-0.296125
-0.296125
-0.296126
-0.296125
-0.296128
-0.296128
-1
