# vtk DataFile Version 2.0
FlowField
ASCII
DATASET STRUCTURED_GRID
DIMENSIONS 102 13 1 
POINTS 1326 double
0 0 0
0.3 0 0
0.6 0 0
0.9 0 0
1.2 0 0
1.5 0 0
1.8 0 0
2.1 0 0
2.4 0 0
2.7 0 0
3 0 0
3.3 0 0
3.6 0 0
3.9 0 0
4.2 0 0
4.5 0 0
4.8 0 0
5.1 0 0
5.4 0 0
5.7 0 0
6 0 0
6.3 0 0
6.6 0 0
6.9 0 0
7.2 0 0
7.5 0 0
7.8 0 0
8.1 0 0
8.4 0 0
8.7 0 0
9 0 0
9.3 0 0
9.6 0 0
9.9 0 0
10.2 0 0
10.5 0 0
10.8 0 0
11.1 0 0
11.4 0 0
11.7 0 0
12 0 0
12.3 0 0
12.6 0 0
12.9 0 0
13.2 0 0
13.5 0 0
13.8 0 0
14.1 0 0
14.4 0 0
14.7 0 0
15 0 0
15.3 0 0
15.6 0 0
15.9 0 0
16.2 0 0
16.5 0 0
16.8 0 0
17.1 0 0
17.4 0 0
17.7 0 0
18 0 0
18.3 0 0
18.6 0 0
18.9 0 0
19.2 0 0
19.5 0 0
19.8 0 0
20.1 0 0
20.4 0 0
20.7 0 0
21 0 0
21.3 0 0
21.6 0 0
21.9 0 0
22.2 0 0
22.5 0 0
22.8 0 0
23.1 0 0
23.4 0 0
23.7 0 0
24 0 0
24.3 0 0
24.6 0 0
24.9 0 0
25.2 0 0
25.5 0 0
25.8 0 0
26.1 0 0
26.4 0 0
26.7 0 0
27 0 0
27.3 0 0
27.6 0 0
27.9 0 0
28.2 0 0
28.5 0 0
28.8 0 0
29.1 0 0
29.4 0 0
29.7 0 0
30 0 0
30.3 0 0
0 0.1 0
0.3 0.1 0
0.6 0.1 0
0.9 0.1 0
1.2 0.1 0
1.5 0.1 0
1.8 0.1 0
2.1 0.1 0
2.4 0.1 0
2.7 0.1 0
3 0.1 0
3.3 0.1 0
3.6 0.1 0
3.9 0.1 0
4.2 0.1 0
4.5 0.1 0
4.8 0.1 0
5.1 0.1 0
5.4 0.1 0
5.7 0.1 0
6 0.1 0
6.3 0.1 0
6.6 0.1 0
6.9 0.1 0
7.2 0.1 0
7.5 0.1 0
7.8 0.1 0
8.1 0.1 0
8.4 0.1 0
8.7 0.1 0
9 0.1 0
9.3 0.1 0
9.6 0.1 0
9.9 0.1 0
10.2 0.1 0
10.5 0.1 0
10.8 0.1 0
11.1 0.1 0
11.4 0.1 0
11.7 0.1 0
12 0.1 0
12.3 0.1 0
12.6 0.1 0
12.9 0.1 0
13.2 0.1 0
13.5 0.1 0
13.8 0.1 0
14.1 0.1 0
14.4 0.1 0
14.7 0.1 0
15 0.1 0
15.3 0.1 0
15.6 0.1 0
15.9 0.1 0
16.2 0.1 0
16.5 0.1 0
16.8 0.1 0
17.1 0.1 0
17.4 0.1 0
17.7 0.1 0
18 0.1 0
18.3 0.1 0
18.6 0.1 0
18.9 0.1 0
19.2 0.1 0
19.5 0.1 0
19.8 0.1 0
20.1 0.1 0
20.4 0.1 0
20.7 0.1 0
21 0.1 0
21.3 0.1 0
21.6 0.1 0
21.9 0.1 0
22.2 0.1 0
22.5 0.1 0
22.8 0.1 0
23.1 0.1 0
23.4 0.1 0
23.7 0.1 0
24 0.1 0
24.3 0.1 0
24.6 0.1 0
24.9 0.1 0
25.2 0.1 0
25.5 0.1 0
25.8 0.1 0
26.1 0.1 0
26.4 0.1 0
26.7 0.1 0
27 0.1 0
27.3 0.1 0
27.6 0.1 0
27.9 0.1 0
28.2 0.1 0
28.5 0.1 0
28.8 0.1 0
29.1 0.1 0
29.4 0.1 0
29.7 0.1 0
30 0.1 0
30.3 0.1 0
0 0.2 0
0.3 0.2 0
0.6 0.2 0
0.9 0.2 0
1.2 0.2 0
1.5 0.2 0
1.8 0.2 0
2.1 0.2 0
2.4 0.2 0
2.7 0.2 0
3 0.2 0
3.3 0.2 0
3.6 0.2 0
3.9 0.2 0
4.2 0.2 0
4.5 0.2 0
4.8 0.2 0
5.1 0.2 0
5.4 0.2 0
5.7 0.2 0
6 0.2 0
6.3 0.2 0
6.6 0.2 0
6.9 0.2 0
7.2 0.2 0
7.5 0.2 0
7.8 0.2 0
8.1 0.2 0
8.4 0.2 0
8.7 0.2 0
9 0.2 0
9.3 0.2 0
9.6 0.2 0
9.9 0.2 0
10.2 0.2 0
10.5 0.2 0
10.8 0.2 0
11.1 0.2 0
11.4 0.2 0
11.7 0.2 0
12 0.2 0
12.3 0.2 0
12.6 0.2 0
12.9 0.2 0
13.2 0.2 0
13.5 0.2 0
13.8 0.2 0
14.1 0.2 0
14.4 0.2 0
14.7 0.2 0
15 0.2 0
15.3 0.2 0
15.6 0.2 0
15.9 0.2 0
16.2 0.2 0
16.5 0.2 0
16.8 0.2 0
17.1 0.2 0
17.4 0.2 0
17.7 0.2 0
18 0.2 0
18.3 0.2 0
18.6 0.2 0
18.9 0.2 0
19.2 0.2 0
19.5 0.2 0
19.8 0.2 0
20.1 0.2 0
20.4 0.2 0
20.7 0.2 0
21 0.2 0
21.3 0.2 0
21.6 0.2 0
21.9 0.2 0
22.2 0.2 0
22.5 0.2 0
22.8 0.2 0
23.1 0.2 0
23.4 0.2 0
23.7 0.2 0
24 0.2 0
24.3 0.2 0
24.6 0.2 0
24.9 0.2 0
25.2 0.2 0
25.5 0.2 0
25.8 0.2 0
26.1 0.2 0
26.4 0.2 0
26.7 0.2 0
27 0.2 0
27.3 0.2 0
27.6 0.2 0
27.9 0.2 0
28.2 0.2 0
28.5 0.2 0
28.8 0.2 0
29.1 0.2 0
29.4 0.2 0
29.7 0.2 0
30 0.2 0
30.3 0.2 0
0 0.3 0
0.3 0.3 0
0.6 0.3 0
0.9 0.3 0
1.2 0.3 0
1.5 0.3 0
1.8 0.3 0
2.1 0.3 0
2.4 0.3 0
2.7 0.3 0
3 0.3 0
3.3 0.3 0
3.6 0.3 0
3.9 0.3 0
4.2 0.3 0
4.5 0.3 0
4.8 0.3 0
5.1 0.3 0
5.4 0.3 0
5.7 0.3 0
6 0.3 0
6.3 0.3 0
6.6 0.3 0
6.9 0.3 0
7.2 0.3 0
7.5 0.3 0
7.8 0.3 0
8.1 0.3 0
8.4 0.3 0
8.7 0.3 0
9 0.3 0
9.3 0.3 0
9.6 0.3 0
9.9 0.3 0
10.2 0.3 0
10.5 0.3 0
10.8 0.3 0
11.1 0.3 0
11.4 0.3 0
11.7 0.3 0
12 0.3 0
12.3 0.3 0
12.6 0.3 0
12.9 0.3 0
13.2 0.3 0
13.5 0.3 0
13.8 0.3 0
14.1 0.3 0
14.4 0.3 0
14.7 0.3 0
15 0.3 0
15.3 0.3 0
15.6 0.3 0
15.9 0.3 0
16.2 0.3 0
16.5 0.3 0
16.8 0.3 0
17.1 0.3 0
17.4 0.3 0
17.7 0.3 0
18 0.3 0
18.3 0.3 0
18.6 0.3 0
18.9 0.3 0
19.2 0.3 0
19.5 0.3 0
19.8 0.3 0
20.1 0.3 0
20.4 0.3 0
20.7 0.3 0
21 0.3 0
21.3 0.3 0
21.6 0.3 0
21.9 0.3 0
22.2 0.3 0
22.5 0.3 0
22.8 0.3 0
23.1 0.3 0
23.4 0.3 0
23.7 0.3 0
24 0.3 0
24.3 0.3 0
24.6 0.3 0
24.9 0.3 0
25.2 0.3 0
25.5 0.3 0
25.8 0.3 0
26.1 0.3 0
26.4 0.3 0
26.7 0.3 0
27 0.3 0
27.3 0.3 0
27.6 0.3 0
27.9 0.3 0
28.2 0.3 0
28.5 0.3 0
28.8 0.3 0
29.1 0.3 0
29.4 0.3 0
29.7 0.3 0
30 0.3 0
30.3 0.3 0
0 0.4 0
0.3 0.4 0
0.6 0.4 0
0.9 0.4 0
1.2 0.4 0
1.5 0.4 0
1.8 0.4 0
2.1 0.4 0
2.4 0.4 0
2.7 0.4 0
3 0.4 0
3.3 0.4 0
3.6 0.4 0
3.9 0.4 0
4.2 0.4 0
4.5 0.4 0
4.8 0.4 0
5.1 0.4 0
5.4 0.4 0
5.7 0.4 0
6 0.4 0
6.3 0.4 0
6.6 0.4 0
6.9 0.4 0
7.2 0.4 0
7.5 0.4 0
7.8 0.4 0
8.1 0.4 0
8.4 0.4 0
8.7 0.4 0
9 0.4 0
9.3 0.4 0
9.6 0.4 0
9.9 0.4 0
10.2 0.4 0
10.5 0.4 0
10.8 0.4 0
11.1 0.4 0
11.4 0.4 0
11.7 0.4 0
12 0.4 0
12.3 0.4 0
12.6 0.4 0
12.9 0.4 0
13.2 0.4 0
13.5 0.4 0
13.8 0.4 0
14.1 0.4 0
14.4 0.4 0
14.7 0.4 0
15 0.4 0
15.3 0.4 0
15.6 0.4 0
15.9 0.4 0
16.2 0.4 0
16.5 0.4 0
16.8 0.4 0
17.1 0.4 0
17.4 0.4 0
17.7 0.4 0
18 0.4 0
18.3 0.4 0
18.6 0.4 0
18.9 0.4 0
19.2 0.4 0
19.5 0.4 0
19.8 0.4 0
20.1 0.4 0
20.4 0.4 0
20.7 0.4 0
21 0.4 0
21.3 0.4 0
21.6 0.4 0
21.9 0.4 0
22.2 0.4 0
22.5 0.4 0
22.8 0.4 0
23.1 0.4 0
23.4 0.4 0
23.7 0.4 0
24 0.4 0
24.3 0.4 0
24.6 0.4 0
24.9 0.4 0
25.2 0.4 0
25.5 0.4 0
25.8 0.4 0
26.1 0.4 0
26.4 0.4 0
26.7 0.4 0
27 0.4 0
27.3 0.4 0
27.6 0.4 0
27.9 0.4 0
28.2 0.4 0
28.5 0.4 0
28.8 0.4 0
29.1 0.4 0
29.4 0.4 0
29.7 0.4 0
30 0.4 0
30.3 0.4 0
0 0.5 0
0.3 0.5 0
0.6 0.5 0
0.9 0.5 0
1.2 0.5 0
1.5 0.5 0
1.8 0.5 0
2.1 0.5 0
2.4 0.5 0
2.7 0.5 0
3 0.5 0
3.3 0.5 0
3.6 0.5 0
3.9 0.5 0
4.2 0.5 0
4.5 0.5 0
4.8 0.5 0
5.1 0.5 0
5.4 0.5 0
5.7 0.5 0
6 0.5 0
6.3 0.5 0
6.6 0.5 0
6.9 0.5 0
7.2 0.5 0
7.5 0.5 0
7.8 0.5 0
8.1 0.5 0
8.4 0.5 0
8.7 0.5 0
9 0.5 0
9.3 0.5 0
9.6 0.5 0
9.9 0.5 0
10.2 0.5 0
10.5 0.5 0
10.8 0.5 0
11.1 0.5 0
11.4 0.5 0
11.7 0.5 0
12 0.5 0
12.3 0.5 0
12.6 0.5 0
12.9 0.5 0
13.2 0.5 0
13.5 0.5 0
13.8 0.5 0
14.1 0.5 0
14.4 0.5 0
14.7 0.5 0
15 0.5 0
15.3 0.5 0
15.6 0.5 0
15.9 0.5 0
16.2 0.5 0
16.5 0.5 0
16.8 0.5 0
17.1 0.5 0
17.4 0.5 0
17.7 0.5 0
18 0.5 0
18.3 0.5 0
18.6 0.5 0
18.9 0.5 0
19.2 0.5 0
19.5 0.5 0
19.8 0.5 0
20.1 0.5 0
20.4 0.5 0
20.7 0.5 0
21 0.5 0
21.3 0.5 0
21.6 0.5 0
21.9 0.5 0
22.2 0.5 0
22.5 0.5 0
22.8 0.5 0
23.1 0.5 0
23.4 0.5 0
23.7 0.5 0
24 0.5 0
24.3 0.5 0
24.6 0.5 0
24.9 0.5 0
25.2 0.5 0
25.5 0.5 0
25.8 0.5 0
26.1 0.5 0
26.4 0.5 0
26.7 0.5 0
27 0.5 0
27.3 0.5 0
27.6 0.5 0
27.9 0.5 0
28.2 0.5 0
28.5 0.5 0
28.8 0.5 0
29.1 0.5 0
29.4 0.5 0
29.7 0.5 0
30 0.5 0
30.3 0.5 0
0 0.6 0
0.3 0.6 0
0.6 0.6 0
0.9 0.6 0
1.2 0.6 0
1.5 0.6 0
1.8 0.6 0
2.1 0.6 0
2.4 0.6 0
2.7 0.6 0
3 0.6 0
3.3 0.6 0
3.6 0.6 0
3.9 0.6 0
4.2 0.6 0
4.5 0.6 0
4.8 0.6 0
5.1 0.6 0
5.4 0.6 0
5.7 0.6 0
6 0.6 0
6.3 0.6 0
6.6 0.6 0
6.9 0.6 0
7.2 0.6 0
7.5 0.6 0
7.8 0.6 0
8.1 0.6 0
8.4 0.6 0
8.7 0.6 0
9 0.6 0
9.3 0.6 0
9.6 0.6 0
9.9 0.6 0
10.2 0.6 0
10.5 0.6 0
10.8 0.6 0
11.1 0.6 0
11.4 0.6 0
11.7 0.6 0
12 0.6 0
12.3 0.6 0
12.6 0.6 0
12.9 0.6 0
13.2 0.6 0
13.5 0.6 0
13.8 0.6 0
14.1 0.6 0
14.4 0.6 0
14.7 0.6 0
15 0.6 0
15.3 0.6 0
15.6 0.6 0
15.9 0.6 0
16.2 0.6 0
16.5 0.6 0
16.8 0.6 0
17.1 0.6 0
17.4 0.6 0
17.7 0.6 0
18 0.6 0
18.3 0.6 0
18.6 0.6 0
18.9 0.6 0
19.2 0.6 0
19.5 0.6 0
19.8 0.6 0
20.1 0.6 0
20.4 0.6 0
20.7 0.6 0
21 0.6 0
21.3 0.6 0
21.6 0.6 0
21.9 0.6 0
22.2 0.6 0
22.5 0.6 0
22.8 0.6 0
23.1 0.6 0
23.4 0.6 0
23.7 0.6 0
24 0.6 0
24.3 0.6 0
24.6 0.6 0
24.9 0.6 0
25.2 0.6 0
25.5 0.6 0
25.8 0.6 0
26.1 0.6 0
26.4 0.6 0
26.7 0.6 0
27 0.6 0
27.3 0.6 0
27.6 0.6 0
27.9 0.6 0
28.2 0.6 0
28.5 0.6 0
28.8 0.6 0
29.1 0.6 0
29.4 0.6 0
29.7 0.6 0
30 0.6 0
30.3 0.6 0
0 0.7 0
0.3 0.7 0
0.6 0.7 0
0.9 0.7 0
1.2 0.7 0
1.5 0.7 0
1.8 0.7 0
2.1 0.7 0
2.4 0.7 0
2.7 0.7 0
3 0.7 0
3.3 0.7 0
3.6 0.7 0
3.9 0.7 0
4.2 0.7 0
4.5 0.7 0
4.8 0.7 0
5.1 0.7 0
5.4 0.7 0
5.7 0.7 0
6 0.7 0
6.3 0.7 0
6.6 0.7 0
6.9 0.7 0
7.2 0.7 0
7.5 0.7 0
7.8 0.7 0
8.1 0.7 0
8.4 0.7 0
8.7 0.7 0
9 0.7 0
9.3 0.7 0
9.6 0.7 0
9.9 0.7 0
10.2 0.7 0
10.5 0.7 0
10.8 0.7 0
11.1 0.7 0
11.4 0.7 0
11.7 0.7 0
12 0.7 0
12.3 0.7 0
12.6 0.7 0
12.9 0.7 0
13.2 0.7 0
13.5 0.7 0
13.8 0.7 0
14.1 0.7 0
14.4 0.7 0
14.7 0.7 0
15 0.7 0
15.3 0.7 0
15.6 0.7 0
15.9 0.7 0
16.2 0.7 0
16.5 0.7 0
16.8 0.7 0
17.1 0.7 0
17.4 0.7 0
17.7 0.7 0
18 0.7 0
18.3 0.7 0
18.6 0.7 0
18.9 0.7 0
19.2 0.7 0
19.5 0.7 0
19.8 0.7 0
20.1 0.7 0
20.4 0.7 0
20.7 0.7 0
21 0.7 0
21.3 0.7 0
21.6 0.7 0
21.9 0.7 0
22.2 0.7 0
22.5 0.7 0
22.8 0.7 0
23.1 0.7 0
23.4 0.7 0
23.7 0.7 0
24 0.7 0
24.3 0.7 0
24.6 0.7 0
24.9 0.7 0
25.2 0.7 0
25.5 0.7 0
25.8 0.7 0
26.1 0.7 0
26.4 0.7 0
26.7 0.7 0
27 0.7 0
27.3 0.7 0
27.6 0.7 0
27.9 0.7 0
28.2 0.7 0
28.5 0.7 0
28.8 0.7 0
29.1 0.7 0
29.4 0.7 0
29.7 0.7 0
30 0.7 0
30.3 0.7 0
0 0.8 0
0.3 0.8 0
0.6 0.8 0
0.9 0.8 0
1.2 0.8 0
1.5 0.8 0
1.8 0.8 0
2.1 0.8 0
2.4 0.8 0
2.7 0.8 0
3 0.8 0
3.3 0.8 0
3.6 0.8 0
3.9 0.8 0
4.2 0.8 0
4.5 0.8 0
4.8 0.8 0
5.1 0.8 0
5.4 0.8 0
5.7 0.8 0
6 0.8 0
6.3 0.8 0
6.6 0.8 0
6.9 0.8 0
7.2 0.8 0
7.5 0.8 0
7.8 0.8 0
8.1 0.8 0
8.4 0.8 0
8.7 0.8 0
9 0.8 0
9.3 0.8 0
9.6 0.8 0
9.9 0.8 0
10.2 0.8 0
10.5 0.8 0
10.8 0.8 0
11.1 0.8 0
11.4 0.8 0
11.7 0.8 0
12 0.8 0
12.3 0.8 0
12.6 0.8 0
12.9 0.8 0
13.2 0.8 0
13.5 0.8 0
13.8 0.8 0
14.1 0.8 0
14.4 0.8 0
14.7 0.8 0
15 0.8 0
15.3 0.8 0
15.6 0.8 0
15.9 0.8 0
16.2 0.8 0
16.5 0.8 0
16.8 0.8 0
17.1 0.8 0
17.4 0.8 0
17.7 0.8 0
18 0.8 0
18.3 0.8 0
18.6 0.8 0
18.9 0.8 0
19.2 0.8 0
19.5 0.8 0
19.8 0.8 0
20.1 0.8 0
20.4 0.8 0
20.7 0.8 0
21 0.8 0
21.3 0.8 0
21.6 0.8 0
21.9 0.8 0
22.2 0.8 0
22.5 0.8 0
22.8 0.8 0
23.1 0.8 0
23.4 0.8 0
23.7 0.8 0
24 0.8 0
24.3 0.8 0
24.6 0.8 0
24.9 0.8 0
25.2 0.8 0
25.5 0.8 0
25.8 0.8 0
26.1 0.8 0
26.4 0.8 0
26.7 0.8 0
27 0.8 0
27.3 0.8 0
27.6 0.8 0
27.9 0.8 0
28.2 0.8 0
28.5 0.8 0
28.8 0.8 0
29.1 0.8 0
29.4 0.8 0
29.7 0.8 0
30 0.8 0
30.3 0.8 0
0 0.9 0
0.3 0.9 0
0.6 0.9 0
0.9 0.9 0
1.2 0.9 0
1.5 0.9 0
1.8 0.9 0
2.1 0.9 0
2.4 0.9 0
2.7 0.9 0
3 0.9 0
3.3 0.9 0
3.6 0.9 0
3.9 0.9 0
4.2 0.9 0
4.5 0.9 0
4.8 0.9 0
5.1 0.9 0
5.4 0.9 0
5.7 0.9 0
6 0.9 0
6.3 0.9 0
6.6 0.9 0
6.9 0.9 0
7.2 0.9 0
7.5 0.9 0
7.8 0.9 0
8.1 0.9 0
8.4 0.9 0
8.7 0.9 0
9 0.9 0
9.3 0.9 0
9.6 0.9 0
9.9 0.9 0
10.2 0.9 0
10.5 0.9 0
10.8 0.9 0
11.1 0.9 0
11.4 0.9 0
11.7 0.9 0
12 0.9 0
12.3 0.9 0
12.6 0.9 0
12.9 0.9 0
13.2 0.9 0
13.5 0.9 0
13.8 0.9 0
14.1 0.9 0
14.4 0.9 0
14.7 0.9 0
15 0.9 0
15.3 0.9 0
15.6 0.9 0
15.9 0.9 0
16.2 0.9 0
16.5 0.9 0
16.8 0.9 0
17.1 0.9 0
17.4 0.9 0
17.7 0.9 0
18 0.9 0
18.3 0.9 0
18.6 0.9 0
18.9 0.9 0
19.2 0.9 0
19.5 0.9 0
19.8 0.9 0
20.1 0.9 0
20.4 0.9 0
20.7 0.9 0
21 0.9 0
21.3 0.9 0
21.6 0.9 0
21.9 0.9 0
22.2 0.9 0
22.5 0.9 0
22.8 0.9 0
23.1 0.9 0
23.4 0.9 0
23.7 0.9 0
24 0.9 0
24.3 0.9 0
24.6 0.9 0
24.9 0.9 0
25.2 0.9 0
25.5 0.9 0
25.8 0.9 0
26.1 0.9 0
26.4 0.9 0
26.7 0.9 0
27 0.9 0
27.3 0.9 0
27.6 0.9 0
27.9 0.9 0
28.2 0.9 0
28.5 0.9 0
28.8 0.9 0
29.1 0.9 0
29.4 0.9 0
29.7 0.9 0
30 0.9 0
30.3 0.9 0
0 1 0
0.3 1 0
0.6 1 0
0.9 1 0
1.2 1 0
1.5 1 0
1.8 1 0
2.1 1 0
2.4 1 0
2.7 1 0
3 1 0
3.3 1 0
3.6 1 0
3.9 1 0
4.2 1 0
4.5 1 0
4.8 1 0
5.1 1 0
5.4 1 0
5.7 1 0
6 1 0
6.3 1 0
6.6 1 0
6.9 1 0
7.2 1 0
7.5 1 0
7.8 1 0
8.1 1 0
8.4 1 0
8.7 1 0
9 1 0
9.3 1 0
9.6 1 0
9.9 1 0
10.2 1 0
10.5 1 0
10.8 1 0
11.1 1 0
11.4 1 0
11.7 1 0
12 1 0
12.3 1 0
12.6 1 0
12.9 1 0
13.2 1 0
13.5 1 0
13.8 1 0
14.1 1 0
14.4 1 0
14.7 1 0
15 1 0
15.3 1 0
15.6 1 0
15.9 1 0
16.2 1 0
16.5 1 0
16.8 1 0
17.1 1 0
17.4 1 0
17.7 1 0
18 1 0
18.3 1 0
18.6 1 0
18.9 1 0
19.2 1 0
19.5 1 0
19.8 1 0
20.1 1 0
20.4 1 0
20.7 1 0
21 1 0
21.3 1 0
21.6 1 0
21.9 1 0
22.2 1 0
22.5 1 0
22.8 1 0
23.1 1 0
23.4 1 0
23.7 1 0
24 1 0
24.3 1 0
24.6 1 0
24.9 1 0
25.2 1 0
25.5 1 0
25.8 1 0
26.1 1 0
26.4 1 0
26.7 1 0
27 1 0
27.3 1 0
27.6 1 0
27.9 1 0
28.2 1 0
28.5 1 0
28.8 1 0
29.1 1 0
29.4 1 0
29.7 1 0
30 1 0
30.3 1 0
0 1.1 0
0.3 1.1 0
0.6 1.1 0
0.9 1.1 0
1.2 1.1 0
1.5 1.1 0
1.8 1.1 0
2.1 1.1 0
2.4 1.1 0
2.7 1.1 0
3 1.1 0
3.3 1.1 0
3.6 1.1 0
3.9 1.1 0
4.2 1.1 0
4.5 1.1 0
4.8 1.1 0
5.1 1.1 0
5.4 1.1 0
5.7 1.1 0
6 1.1 0
6.3 1.1 0
6.6 1.1 0
6.9 1.1 0
7.2 1.1 0
7.5 1.1 0
7.8 1.1 0
8.1 1.1 0
8.4 1.1 0
8.7 1.1 0
9 1.1 0
9.3 1.1 0
9.6 1.1 0
9.9 1.1 0
10.2 1.1 0
10.5 1.1 0
10.8 1.1 0
11.1 1.1 0
11.4 1.1 0
11.7 1.1 0
12 1.1 0
12.3 1.1 0
12.6 1.1 0
12.9 1.1 0
13.2 1.1 0
13.5 1.1 0
13.8 1.1 0
14.1 1.1 0
14.4 1.1 0
14.7 1.1 0
15 1.1 0
15.3 1.1 0
15.6 1.1 0
15.9 1.1 0
16.2 1.1 0
16.5 1.1 0
16.8 1.1 0
17.1 1.1 0
17.4 1.1 0
17.7 1.1 0
18 1.1 0
18.3 1.1 0
18.6 1.1 0
18.9 1.1 0
19.2 1.1 0
19.5 1.1 0
19.8 1.1 0
20.1 1.1 0
20.4 1.1 0
20.7 1.1 0
21 1.1 0
21.3 1.1 0
21.6 1.1 0
21.9 1.1 0
22.2 1.1 0
22.5 1.1 0
22.8 1.1 0
23.1 1.1 0
23.4 1.1 0
23.7 1.1 0
24 1.1 0
24.3 1.1 0
24.6 1.1 0
24.9 1.1 0
25.2 1.1 0
25.5 1.1 0
25.8 1.1 0
26.1 1.1 0
26.4 1.1 0
26.7 1.1 0
27 1.1 0
27.3 1.1 0
27.6 1.1 0
27.9 1.1 0
28.2 1.1 0
28.5 1.1 0
28.8 1.1 0
29.1 1.1 0
29.4 1.1 0
29.7 1.1 0
30 1.1 0
30.3 1.1 0
0 1.2 0
0.3 1.2 0
0.6 1.2 0
0.9 1.2 0
1.2 1.2 0
1.5 1.2 0
1.8 1.2 0
2.1 1.2 0
2.4 1.2 0
2.7 1.2 0
3 1.2 0
3.3 1.2 0
3.6 1.2 0
3.9 1.2 0
4.2 1.2 0
4.5 1.2 0
4.8 1.2 0
5.1 1.2 0
5.4 1.2 0
5.7 1.2 0
6 1.2 0
6.3 1.2 0
6.6 1.2 0
6.9 1.2 0
7.2 1.2 0
7.5 1.2 0
7.8 1.2 0
8.1 1.2 0
8.4 1.2 0
8.7 1.2 0
9 1.2 0
9.3 1.2 0
9.6 1.2 0
9.9 1.2 0
10.2 1.2 0
10.5 1.2 0
10.8 1.2 0
11.1 1.2 0
11.4 1.2 0
11.7 1.2 0
12 1.2 0
12.3 1.2 0
12.6 1.2 0
12.9 1.2 0
13.2 1.2 0
13.5 1.2 0
13.8 1.2 0
14.1 1.2 0
14.4 1.2 0
14.7 1.2 0
15 1.2 0
15.3 1.2 0
15.6 1.2 0
15.9 1.2 0
16.2 1.2 0
16.5 1.2 0
16.8 1.2 0
17.1 1.2 0
17.4 1.2 0
17.7 1.2 0
18 1.2 0
18.3 1.2 0
18.6 1.2 0
18.9 1.2 0
19.2 1.2 0
19.5 1.2 0
19.8 1.2 0
20.1 1.2 0
20.4 1.2 0
20.7 1.2 0
21 1.2 0
21.3 1.2 0
21.6 1.2 0
21.9 1.2 0
22.2 1.2 0
22.5 1.2 0
22.8 1.2 0
23.1 1.2 0
23.4 1.2 0
23.7 1.2 0
24 1.2 0
24.3 1.2 0
24.6 1.2 0
24.9 1.2 0
25.2 1.2 0
25.5 1.2 0
25.8 1.2 0
26.1 1.2 0
26.4 1.2 0
26.7 1.2 0
27 1.2 0
27.3 1.2 0
27.6 1.2 0
27.9 1.2 0
28.2 1.2 0
28.5 1.2 0
28.8 1.2 0
29.1 1.2 0
29.4 1.2 0
29.7 1.2 0
30 1.2 0
30.3 1.2 0

POINT_DATA 1326

SCALARS phi double
LOOKUP_TABLE default
0.998137
1.00186
1.01814
0.916542
0.659616
0.378803
0.180744
0.0744452
0.0271524
0.0089142
0.00266492
0.000732033
0.000186108
4.40489e-05
9.75164e-06
2.02678e-06
3.9665e-07
7.32704e-08
1.2801e-08
2.11892e-09
3.32824e-10
4.96787e-11
7.05609e-12
9.54886e-13
1.23271e-13
1.51985e-14
1.79167e-15
2.0216e-16
2.18552e-17
2.266e-18
2.25535e-19
2.15672e-20
1.98318e-21
1.75493e-22
1.49558e-23
1.22833e-24
9.72893e-26
7.43588e-27
5.48747e-28
3.91225e-29
2.69603e-30
1.79672e-31
1.15851e-32
7.23053e-34
4.36995e-35
2.55851e-36
1.45165e-37
7.98466e-39
4.25902e-40
2.20372e-41
1.10643e-42
5.39173e-44
2.55084e-45
1.17191e-46
5.22943e-48
2.26704e-49
9.54977e-51
3.90961e-52
1.5558e-53
6.01899e-55
2.26414e-56
8.2823e-58
2.94657e-59
1.01965e-60
3.43234e-62
1.12403e-63
3.5813e-65
1.11022e-66
3.34893e-68
9.82992e-70
2.80773e-71
7.80424e-73
2.11097e-74
5.55662e-76
1.42335e-77
3.54795e-79
8.60587e-81
2.03118e-82
4.66459e-84
1.04224e-85
2.26557e-87
4.7908e-89
9.85416e-91
1.97136e-92
3.83529e-94
7.25538e-96
1.33442e-97
2.38576e-99
4.14566e-101
7.00028e-103
1.14844e-104
1.83014e-106
2.83236e-108
4.25595e-110
6.20756e-112
8.78639e-114
1.20654e-115
1.60723e-117
2.07578e-119
2.60821e-121
3.16734e-123
3.16734e-123
0.998137
1.00186
1.01814
0.916542
0.659616
0.378803
0.180744
0.0744452
0.0271524
0.0089142
0.00266492
0.000732033
0.000186108
4.40489e-05
9.75164e-06
2.02678e-06
3.9665e-07
7.32704e-08
1.2801e-08
2.11892e-09
3.32824e-10
4.96787e-11
7.05609e-12
9.54886e-13
1.23271e-13
1.51985e-14
1.79167e-15
2.0216e-16
2.18552e-17
2.266e-18
2.25535e-19
2.15672e-20
1.98318e-21
1.75493e-22
1.49558e-23
1.22833e-24
9.72893e-26
7.43588e-27
5.48747e-28
3.91225e-29
2.69603e-30
1.79672e-31
1.15851e-32
7.23053e-34
4.36995e-35
2.55851e-36
1.45165e-37
7.98466e-39
4.25902e-40
2.20372e-41
1.10643e-42
5.39173e-44
2.55084e-45
1.17191e-46
5.22943e-48
2.26704e-49
9.54977e-51
3.90961e-52
1.5558e-53
6.01899e-55
2.26414e-56
8.2823e-58
2.94657e-59
1.01965e-60
3.43234e-62
1.12403e-63
3.5813e-65
1.11022e-66
3.34893e-68
9.82992e-70
2.80773e-71
7.80424e-73
2.11097e-74
5.55662e-76
1.42335e-77
3.54795e-79
8.60587e-81
2.03118e-82
4.66459e-84
1.04224e-85
2.26557e-87
4.7908e-89
9.85416e-91
1.97136e-92
3.83529e-94
7.25538e-96
1.33442e-97
2.38576e-99
4.14566e-101
7.00028e-103
1.14844e-104
1.83014e-106
2.83236e-108
4.25595e-110
6.20756e-112
8.78639e-114
1.20654e-115
1.60723e-117
2.07578e-119
2.60821e-121
3.16734e-123
3.16734e-123
0.999502
1.0005
1.01843
0.973869
0.814253
0.582316
0.357115
0.189604
0.0881465
0.0362889
0.0133666
0.00444481
0.00134477
0.000372667
9.5144e-05
2.24913e-05
4.94457e-06
1.01486e-06
1.95135e-07
3.52571e-08
6.00246e-09
9.65283e-10
1.46958e-10
2.1224e-11
2.91313e-12
3.80649e-13
4.7424e-14
5.64159e-15
6.41663e-16
6.98626e-17
7.28965e-18
7.29708e-19
7.0145e-20
6.48105e-21
5.76056e-22
4.92947e-23
4.06421e-24
3.23068e-25
2.47764e-26
1.83433e-27
1.31178e-28
9.06617e-30
6.05883e-31
3.91709e-32
2.45101e-33
1.48497e-34
8.71479e-36
4.95592e-37
2.73196e-38
1.46034e-39
7.57177e-41
3.8092e-42
1.85988e-43
8.81576e-45
4.05759e-46
1.81388e-47
7.87717e-49
3.32386e-50
1.36303e-51
5.43288e-53
2.10518e-54
7.93126e-56
2.90569e-57
1.03529e-58
3.58778e-60
1.20945e-61
3.96625e-63
1.26543e-64
3.9282e-66
1.18649e-67
3.48716e-69
9.9731e-71
2.77555e-72
7.51683e-74
1.98101e-75
5.08047e-77
1.26787e-78
3.07887e-80
7.27499e-82
1.67255e-83
3.74114e-85
8.14099e-87
1.72331e-88
3.5483e-90
7.10569e-92
1.38378e-93
2.6203e-95
4.82388e-97
8.6325e-99
1.50141e-100
2.53752e-102
4.16661e-104
6.64553e-106
1.02933e-107
1.54795e-109
2.25956e-111
3.20069e-113
4.39848e-115
5.86232e-117
7.57875e-119
9.46446e-121
9.46446e-121
0.99997
1.00003
1.01751
0.988825
0.858807
0.646177
0.418409
0.234328
0.114637
0.0495394
0.0191112
0.00664359
0.00209798
0.00060603
0.000161093
3.96099e-05
9.04994e-06
1.92901e-06
3.84949e-07
7.21469e-08
1.2735e-08
2.12247e-09
3.34766e-10
5.00722e-11
7.11587e-12
9.62459e-13
1.24093e-13
1.52739e-14
1.79713e-15
2.02379e-16
2.18379e-17
2.26035e-18
2.24641e-19
2.14562e-20
1.97124e-21
1.7434e-22
1.48544e-23
1.22015e-24
9.66864e-26
7.39565e-27
5.46386e-28
3.90097e-29
2.69289e-30
1.79824e-31
1.16213e-32
7.27164e-34
4.40708e-35
2.58807e-36
1.47321e-37
8.13129e-39
4.35313e-40
2.26109e-41
1.13981e-42
5.57769e-44
2.6503e-45
1.22307e-46
5.483e-48
2.38826e-49
1.01094e-50
4.1593e-52
1.66356e-53
6.4691e-55
2.44621e-56
8.99589e-58
3.21767e-59
1.11951e-60
3.78919e-62
1.24775e-63
3.99763e-65
1.24622e-66
3.78028e-68
1.11585e-69
3.20521e-71
8.95935e-73
2.43709e-74
6.45117e-76
1.66177e-77
4.16544e-79
1.01599e-80
2.41123e-82
5.56781e-84
1.25083e-85
2.73367e-87
5.81153e-89
1.20168e-90
2.41653e-92
4.7255e-94
8.98461e-96
1.66067e-97
2.98352e-99
5.20913e-101
8.83712e-103
1.45639e-104
2.33119e-106
3.62335e-108
5.46725e-110
8.00648e-112
1.13765e-113
1.56798e-115
2.09565e-117
2.70371e-119
2.70371e-119
1.00001
0.999991
1.01657
0.988781
0.862094
0.652533
0.4256
0.240287
0.118556
0.0516755
0.0201053
0.00704727
0.0022434
0.000653091
0.000174915
4.33238e-05
9.96893e-06
2.13961e-06
4.29855e-07
8.10931e-08
1.44061e-08
2.41609e-09
3.83423e-10
5.76963e-11
8.24792e-12
1.12207e-12
1.455e-13
1.80096e-14
2.13075e-15
2.41261e-16
2.61736e-17
2.72351e-18
2.72091e-19
2.61228e-20
2.41225e-21
2.14422e-22
1.83608e-23
1.51563e-24
1.20688e-25
9.2762e-27
6.88603e-28
4.93967e-29
3.42594e-30
2.29841e-31
1.49223e-32
9.37984e-34
5.71058e-35
3.36865e-36
1.9261e-37
1.06781e-38
5.74171e-40
2.99537e-41
1.51649e-42
7.45297e-44
3.55649e-45
1.64823e-46
7.42017e-48
3.2456e-49
1.37957e-50
5.69944e-52
2.28894e-53
8.93746e-55
3.39335e-56
1.25295e-57
4.49961e-59
1.57181e-60
5.34126e-62
1.76581e-63
5.67974e-65
1.77755e-66
5.41311e-68
1.60405e-69
4.62535e-71
1.29789e-72
3.54403e-74
9.41722e-76
2.43505e-77
6.12691e-79
1.50006e-80
3.57348e-82
8.28255e-84
1.86766e-85
4.09696e-87
8.7421e-89
1.81434e-90
3.66202e-92
7.18739e-94
1.37155e-95
2.54437e-97
4.58782e-99
8.03928e-101
1.36878e-102
2.26396e-104
3.63688e-106
5.67308e-108
8.59076e-110
1.26257e-111
1.80039e-113
2.49018e-115
3.33971e-117
4.32299e-119
4.32299e-119
1.00145
0.998547
1.00591
0.968482
0.837369
0.630227
0.409747
0.231045
0.113993
0.0497191
0.0193637
0.00679534
0.0021659
0.000631342
0.000169309
4.19893e-05
9.67429e-06
2.07901e-06
4.18208e-07
7.8994e-08
1.40505e-08
2.35931e-09
3.74861e-10
5.64748e-11
8.08275e-12
1.10087e-12
1.42914e-13
1.77095e-14
2.09758e-15
2.37766e-16
2.58226e-17
2.68989e-18
2.69018e-19
2.58551e-20
2.39001e-21
2.12665e-22
1.8229e-23
1.50627e-24
1.20063e-25
9.23733e-27
6.86392e-28
4.9286e-29
3.42156e-30
2.29766e-31
1.49316e-32
9.39449e-34
5.72482e-35
3.38016e-36
1.93445e-37
1.07341e-38
5.777e-40
3.01645e-41
1.52852e-42
7.51861e-44
3.59092e-45
1.66562e-46
7.50483e-48
3.2854e-49
1.39765e-50
5.77895e-52
2.32278e-53
9.07699e-55
3.44911e-56
1.27456e-57
4.58084e-59
1.60144e-60
5.44621e-62
1.8019e-63
5.80026e-65
1.81665e-66
5.53633e-68
1.64179e-69
4.73767e-71
1.33038e-72
3.63538e-74
9.6669e-76
2.50139e-77
6.29826e-79
1.54309e-80
3.67852e-82
8.53185e-84
1.92518e-85
4.22597e-87
9.02335e-89
1.87394e-90
3.78477e-92
7.43309e-94
1.41934e-95
2.63467e-97
4.7536e-99
8.3349e-101
1.41997e-102
2.35004e-104
3.7774e-106
5.89572e-108
8.93305e-110
1.31362e-111
1.87423e-113
2.59373e-115
3.48029e-117
4.50715e-119
4.50715e-119
1.04825
0.951754
0.88753
0.811653
0.681822
0.505633
0.326346
0.183357
0.0903053
0.0393552
0.0153225
0.00537706
0.00171416
0.000499818
0.000134093
3.3272e-05
7.67006e-06
1.64929e-06
3.31979e-07
6.27491e-08
1.11689e-08
1.87682e-09
2.98428e-10
4.49949e-11
6.44489e-12
8.78514e-13
1.14143e-13
1.41565e-14
1.67821e-15
1.90399e-16
2.0697e-17
2.15794e-18
2.1602e-19
2.07811e-20
1.92283e-21
1.71262e-22
1.46946e-23
1.21544e-24
9.69795e-26
7.46906e-27
5.55578e-28
3.99352e-29
2.77538e-30
1.86576e-31
1.21382e-32
7.64546e-34
4.66424e-35
2.7571e-36
1.57969e-37
8.77584e-39
4.72867e-40
2.47202e-41
1.25416e-42
6.17664e-44
2.95365e-45
1.37175e-46
6.18856e-48
2.71266e-49
1.1555e-50
4.784e-52
1.92543e-53
7.53434e-55
2.86683e-56
1.06084e-57
3.81806e-59
1.33666e-60
4.55221e-62
1.50828e-63
4.86221e-65
1.5251e-66
4.65474e-68
1.38243e-69
3.99535e-71
1.12366e-72
3.0753e-74
8.19048e-76
2.12274e-77
5.35348e-79
1.31376e-80
3.13699e-82
7.28799e-84
1.64728e-85
3.62213e-87
7.74737e-89
1.61175e-90
3.26099e-92
6.41583e-94
1.2273e-95
2.28236e-97
4.12554e-99
7.24716e-101
1.23699e-102
2.0511e-104
3.30325e-106
5.16572e-108
7.8424e-110
1.15553e-111
1.652e-113
2.29083e-115
3.08013e-117
3.99716e-119
3.99716e-119
-0.0446468
0.0446468
0.111608
0.151571
0.156587
0.130958
0.0910142
0.0535934
0.0272083
0.0120955
0.0047715
0.00168897
0.000541417
0.000158393
4.25657e-05
1.05663e-05
2.4345e-06
5.22805e-07
1.0503e-07
1.98034e-08
3.51467e-09
5.88674e-10
9.3267e-11
1.40076e-11
1.9981e-12
2.71176e-13
3.50722e-14
4.32907e-15
5.10664e-16
5.76408e-17
6.23277e-18
6.46334e-19
6.43415e-20
6.15444e-21
5.66142e-22
5.01249e-23
4.27466e-24
3.5138e-25
2.78593e-26
2.13182e-27
1.57533e-28
1.1248e-29
7.76389e-31
5.18323e-32
3.34839e-33
2.09397e-34
1.26819e-35
7.44108e-37
4.23142e-38
2.33281e-39
1.24725e-40
6.46901e-42
3.25577e-43
1.59042e-44
7.54265e-46
3.47365e-47
1.55379e-48
6.75192e-50
2.85084e-51
1.16978e-52
4.66541e-54
1.80881e-55
6.81819e-57
2.49904e-58
8.90743e-60
3.0878e-61
1.04112e-62
3.41459e-64
1.08941e-65
3.38132e-67
1.02102e-68
2.99957e-70
8.57358e-72
2.38425e-73
6.45104e-75
1.69821e-76
4.34936e-78
1.08373e-79
2.62702e-81
6.1948e-83
1.42097e-84
3.17037e-86
6.87956e-88
1.45177e-89
2.97905e-91
5.94356e-93
1.15279e-94
2.17332e-96
3.98201e-98
7.08947e-100
1.22625e-101
2.06021e-103
3.36142e-105
5.32495e-107
8.18811e-109
1.22185e-110
1.76887e-112
2.48367e-114
3.38114e-116
4.46116e-118
5.67898e-120
5.67898e-120
-0.00139592
0.00139592
0.00901054
0.0168744
0.0209649
0.0197314
0.0148088
0.0091641
0.00480335
0.00217963
0.000871238
0.000310971
0.000100183
2.93846e-05
7.90313e-06
1.96078e-06
4.51051e-07
9.66268e-08
1.93514e-08
3.63524e-09
6.42482e-10
1.07116e-10
1.6887e-11
2.52288e-12
3.5788e-13
4.82889e-14
6.20778e-15
7.61469e-16
8.92467e-17
1.0007e-17
1.07474e-18
1.10676e-19
1.09394e-20
1.0388e-21
9.48524e-23
8.3348e-24
7.05347e-25
5.75283e-26
4.52501e-27
3.43471e-28
2.51737e-29
1.78249e-30
1.22e-31
8.0752e-33
5.17138e-34
3.20557e-35
1.9241e-36
1.11876e-37
6.30357e-39
3.44291e-40
1.82343e-41
9.36716e-43
4.66875e-44
2.25829e-45
1.06036e-46
4.83412e-48
2.14026e-49
9.20416e-51
3.84548e-52
1.56113e-53
6.15912e-55
2.36184e-56
8.80418e-58
3.19071e-59
1.12433e-60
3.85251e-62
1.28374e-63
4.16031e-65
1.31134e-66
4.02035e-68
1.19893e-69
3.47786e-71
9.81364e-73
2.6937e-74
7.19233e-76
1.86802e-77
4.71931e-79
1.15969e-80
2.77175e-82
6.44298e-84
1.45651e-85
3.20183e-87
6.84387e-89
1.42227e-90
2.87332e-92
5.64233e-94
1.07682e-95
1.99697e-97
3.5981e-99
6.29753e-101
1.07049e-102
1.76691e-104
2.83122e-106
4.40307e-108
6.64434e-110
9.72622e-112
1.38072e-113
1.90023e-115
2.53452e-117
3.27528e-119
4.08207e-121
4.08207e-121
-6.77597e-06
6.77597e-06
0.000531502
0.00133056
0.00196805
0.00208081
0.00168402
0.00109232
0.000589144
0.000271918
0.000109754
3.93693e-05
1.27051e-05
3.72444e-06
9.99467e-07
2.471e-07
5.6586e-08
1.2058e-08
2.40048e-09
4.48016e-10
7.86313e-11
1.30134e-11
2.03584e-12
3.01725e-13
4.24479e-14
5.67893e-15
7.23701e-16
8.79813e-17
1.02179e-17
1.1351e-18
1.20758e-19
1.23163e-20
1.20552e-21
1.13344e-22
1.02457e-23
8.91166e-25
7.4641e-26
6.02436e-27
4.68866e-28
3.52098e-29
2.55276e-30
1.78784e-31
1.21017e-32
7.9208e-34
5.01533e-35
3.07343e-36
1.82354e-37
1.04795e-38
5.83518e-40
3.14921e-41
1.64786e-42
8.36247e-44
4.11688e-45
1.96667e-46
9.11867e-48
4.10453e-49
1.79399e-50
7.61527e-52
3.14006e-53
1.25791e-54
4.89652e-56
1.8523e-57
6.81048e-59
2.43408e-60
8.45726e-62
2.85693e-63
9.38382e-65
2.99709e-66
9.30859e-68
2.81159e-69
8.25885e-71
2.35937e-72
6.55522e-74
1.77131e-75
4.65493e-77
1.18969e-78
2.95696e-80
7.14708e-82
1.67981e-83
3.83896e-85
8.53011e-87
1.84267e-88
3.86942e-90
7.89781e-92
1.56666e-93
3.01987e-95
5.65572e-97
1.02897e-98
1.81825e-100
3.12004e-102
5.19799e-104
8.40587e-106
1.31917e-107
2.00854e-109
2.96624e-111
4.24769e-113
5.89643e-115
7.93196e-117
1.03365e-118
1.30476e-120
1.58807e-122
1.58807e-122
2.42039e-06
-2.42039e-06
2.43683e-05
8.29087e-05
0.000145364
0.000170317
0.000145919
9.72997e-05
5.30026e-05
2.44506e-05
9.80282e-06
3.47825e-06
1.10736e-06
3.19669e-07
8.43687e-08
2.04953e-08
4.60847e-09
9.63725e-10
1.88202e-10
3.44448e-11
5.92668e-12
9.61392e-13
1.4739e-13
2.14036e-14
2.95006e-15
3.8663e-16
4.8262e-17
5.74673e-18
6.53659e-19
7.1114e-20
7.40881e-21
7.3996e-22
7.09213e-23
6.52928e-24
5.77905e-25
4.92159e-26
4.03595e-27
3.18925e-28
2.4301e-29
1.78659e-30
1.26807e-31
8.69411e-33
5.76089e-34
3.69104e-35
2.28771e-36
1.37225e-37
7.96927e-39
4.48252e-40
2.44285e-41
1.29029e-42
6.6074e-44
3.28135e-45
1.58078e-46
7.38924e-48
3.35227e-49
1.47635e-50
6.31301e-52
2.6216e-53
1.05744e-54
4.14354e-56
1.57755e-57
5.83646e-59
2.09856e-60
7.33415e-62
2.49158e-63
8.2288e-65
2.6422e-66
8.24878e-68
2.50398e-69
7.39109e-71
2.12145e-72
5.92127e-74
1.60714e-75
4.24181e-77
1.08867e-78
2.71696e-80
6.59314e-82
1.55562e-83
3.56852e-85
7.95827e-87
1.72527e-88
3.63549e-90
7.44543e-92
1.48179e-93
2.86544e-95
5.38328e-97
9.82385e-99
1.74109e-100
2.99629e-102
5.00592e-104
8.11757e-106
1.27735e-107
1.94996e-109
2.8871e-111
4.14468e-113
5.76748e-115
7.7769e-117
1.01586e-118
1.28499e-120
1.57525e-122
1.8629e-124
1.8629e-124
2.20133e-07
-2.20133e-07
1.28736e-06
5.797e-06
1.09516e-05
1.2783e-05
1.05067e-05
6.61001e-06
3.37686e-06
1.45929e-06
5.4851e-07
1.82802e-07
5.47682e-08
1.49076e-08
3.71698e-09
8.54608e-10
1.82192e-10
3.61824e-11
6.72063e-12
1.17159e-12
1.92275e-13
2.97864e-14
4.36627e-15
6.06926e-16
8.01568e-17
1.00761e-17
1.2075e-18
1.38154e-19
1.51115e-20
1.58219e-21
1.58749e-22
1.52801e-23
1.4123e-24
1.25461e-25
1.07211e-26
8.81991e-28
6.99035e-29
5.34126e-30
3.9371e-31
2.80131e-32
1.92504e-33
1.27833e-34
8.20708e-36
5.09654e-37
3.06263e-38
1.78165e-39
1.00376e-40
5.47858e-42
2.89794e-43
1.48603e-44
7.38951e-46
3.56428e-47
1.66805e-48
7.57588e-50
3.33997e-51
1.42964e-52
5.94256e-54
2.39916e-55
9.40923e-57
3.58531e-58
1.3275e-59
4.77678e-61
1.67061e-62
5.67936e-64
1.87692e-65
6.03041e-67
1.88378e-68
5.72165e-70
1.6898e-71
4.85276e-73
1.35515e-74
3.67989e-76
9.71697e-78
2.49499e-79
6.22927e-81
1.51224e-82
3.56943e-84
8.19116e-86
1.82738e-87
3.96293e-89
8.3534e-91
1.7113e-92
3.40683e-94
6.58996e-96
1.23839e-97
2.26051e-99
4.00734e-101
6.89803e-103
1.15273e-104
1.86967e-106
2.94268e-108
4.49313e-110
6.65381e-112
9.55394e-114
1.3297e-115
1.7933e-117
2.34277e-119
2.96441e-121
3.63071e-123
4.32193e-125
4.96438e-127
4.96438e-127
2.20133e-07
-2.20133e-07
1.28736e-06
5.797e-06
1.09516e-05
1.2783e-05
1.05067e-05
6.61001e-06
3.37686e-06
1.45929e-06
5.4851e-07
1.82802e-07
5.47682e-08
1.49076e-08
3.71698e-09
8.54608e-10
1.82192e-10
3.61824e-11
6.72063e-12
1.17159e-12
1.92275e-13
2.97864e-14
4.36627e-15
6.06926e-16
8.01568e-17
1.00761e-17
1.2075e-18
1.38154e-19
1.51115e-20
1.58219e-21
1.58749e-22
1.52801e-23
1.4123e-24
1.25461e-25
1.07211e-26
8.81991e-28
6.99035e-29
5.34126e-30
3.9371e-31
2.80131e-32
1.92504e-33
1.27833e-34
8.20708e-36
5.09654e-37
3.06263e-38
1.78165e-39
1.00376e-40
5.47858e-42
2.89794e-43
1.48603e-44
7.38951e-46
3.56428e-47
1.66805e-48
7.57588e-50
3.33997e-51
1.42964e-52
5.94256e-54
2.39916e-55
9.40923e-57
3.58531e-58
1.3275e-59
4.77678e-61
1.67061e-62
5.67936e-64
1.87692e-65
6.03041e-67
1.88378e-68
5.72165e-70
1.6898e-71
4.85276e-73
1.35515e-74
3.67989e-76
9.71697e-78
2.49499e-79
6.22927e-81
1.51224e-82
3.56943e-84
8.19116e-86
1.82738e-87
3.96293e-89
8.3534e-91
1.7113e-92
3.40683e-94
6.58996e-96
1.23839e-97
2.26051e-99
4.00734e-101
6.89803e-103
1.15273e-104
1.86967e-106
2.94268e-108
4.49313e-110
6.65381e-112
9.55394e-114
1.3297e-115
1.7933e-117
2.34277e-119
2.96441e-121
3.63071e-123
4.32193e-125
4.96438e-127
4.96438e-127
