# vtk DataFile Version 2.0
FlowField
ASCII
DATASET STRUCTURED_GRID
DIMENSIONS 101 11 1 
POINTS 1111 double
0 0 0
0.3 0 0
0.6 0 0
0.9 0 0
1.2 0 0
1.5 0 0
1.8 0 0
2.1 0 0
2.4 0 0
2.7 0 0
3 0 0
3.3 0 0
3.6 0 0
3.9 0 0
4.2 0 0
4.5 0 0
4.8 0 0
5.1 0 0
5.4 0 0
5.7 0 0
6 0 0
6.3 0 0
6.6 0 0
6.9 0 0
7.2 0 0
7.5 0 0
7.8 0 0
8.1 0 0
8.4 0 0
8.7 0 0
9 0 0
9.3 0 0
9.6 0 0
9.9 0 0
10.2 0 0
10.5 0 0
10.8 0 0
11.1 0 0
11.4 0 0
11.7 0 0
12 0 0
12.3 0 0
12.6 0 0
12.9 0 0
13.2 0 0
13.5 0 0
13.8 0 0
14.1 0 0
14.4 0 0
14.7 0 0
15 0 0
15.3 0 0
15.6 0 0
15.9 0 0
16.2 0 0
16.5 0 0
16.8 0 0
17.1 0 0
17.4 0 0
17.7 0 0
18 0 0
18.3 0 0
18.6 0 0
18.9 0 0
19.2 0 0
19.5 0 0
19.8 0 0
20.1 0 0
20.4 0 0
20.7 0 0
21 0 0
21.3 0 0
21.6 0 0
21.9 0 0
22.2 0 0
22.5 0 0
22.8 0 0
23.1 0 0
23.4 0 0
23.7 0 0
24 0 0
24.3 0 0
24.6 0 0
24.9 0 0
25.2 0 0
25.5 0 0
25.8 0 0
26.1 0 0
26.4 0 0
26.7 0 0
27 0 0
27.3 0 0
27.6 0 0
27.9 0 0
28.2 0 0
28.5 0 0
28.8 0 0
29.1 0 0
29.4 0 0
29.7 0 0
30 0 0
0 0.1 0
0.3 0.1 0
0.6 0.1 0
0.9 0.1 0
1.2 0.1 0
1.5 0.1 0
1.8 0.1 0
2.1 0.1 0
2.4 0.1 0
2.7 0.1 0
3 0.1 0
3.3 0.1 0
3.6 0.1 0
3.9 0.1 0
4.2 0.1 0
4.5 0.1 0
4.8 0.1 0
5.1 0.1 0
5.4 0.1 0
5.7 0.1 0
6 0.1 0
6.3 0.1 0
6.6 0.1 0
6.9 0.1 0
7.2 0.1 0
7.5 0.1 0
7.8 0.1 0
8.1 0.1 0
8.4 0.1 0
8.7 0.1 0
9 0.1 0
9.3 0.1 0
9.6 0.1 0
9.9 0.1 0
10.2 0.1 0
10.5 0.1 0
10.8 0.1 0
11.1 0.1 0
11.4 0.1 0
11.7 0.1 0
12 0.1 0
12.3 0.1 0
12.6 0.1 0
12.9 0.1 0
13.2 0.1 0
13.5 0.1 0
13.8 0.1 0
14.1 0.1 0
14.4 0.1 0
14.7 0.1 0
15 0.1 0
15.3 0.1 0
15.6 0.1 0
15.9 0.1 0
16.2 0.1 0
16.5 0.1 0
16.8 0.1 0
17.1 0.1 0
17.4 0.1 0
17.7 0.1 0
18 0.1 0
18.3 0.1 0
18.6 0.1 0
18.9 0.1 0
19.2 0.1 0
19.5 0.1 0
19.8 0.1 0
20.1 0.1 0
20.4 0.1 0
20.7 0.1 0
21 0.1 0
21.3 0.1 0
21.6 0.1 0
21.9 0.1 0
22.2 0.1 0
22.5 0.1 0
22.8 0.1 0
23.1 0.1 0
23.4 0.1 0
23.7 0.1 0
24 0.1 0
24.3 0.1 0
24.6 0.1 0
24.9 0.1 0
25.2 0.1 0
25.5 0.1 0
25.8 0.1 0
26.1 0.1 0
26.4 0.1 0
26.7 0.1 0
27 0.1 0
27.3 0.1 0
27.6 0.1 0
27.9 0.1 0
28.2 0.1 0
28.5 0.1 0
28.8 0.1 0
29.1 0.1 0
29.4 0.1 0
29.7 0.1 0
30 0.1 0
0 0.2 0
0.3 0.2 0
0.6 0.2 0
0.9 0.2 0
1.2 0.2 0
1.5 0.2 0
1.8 0.2 0
2.1 0.2 0
2.4 0.2 0
2.7 0.2 0
3 0.2 0
3.3 0.2 0
3.6 0.2 0
3.9 0.2 0
4.2 0.2 0
4.5 0.2 0
4.8 0.2 0
5.1 0.2 0
5.4 0.2 0
5.7 0.2 0
6 0.2 0
6.3 0.2 0
6.6 0.2 0
6.9 0.2 0
7.2 0.2 0
7.5 0.2 0
7.8 0.2 0
8.1 0.2 0
8.4 0.2 0
8.7 0.2 0
9 0.2 0
9.3 0.2 0
9.6 0.2 0
9.9 0.2 0
10.2 0.2 0
10.5 0.2 0
10.8 0.2 0
11.1 0.2 0
11.4 0.2 0
11.7 0.2 0
12 0.2 0
12.3 0.2 0
12.6 0.2 0
12.9 0.2 0
13.2 0.2 0
13.5 0.2 0
13.8 0.2 0
14.1 0.2 0
14.4 0.2 0
14.7 0.2 0
15 0.2 0
15.3 0.2 0
15.6 0.2 0
15.9 0.2 0
16.2 0.2 0
16.5 0.2 0
16.8 0.2 0
17.1 0.2 0
17.4 0.2 0
17.7 0.2 0
18 0.2 0
18.3 0.2 0
18.6 0.2 0
18.9 0.2 0
19.2 0.2 0
19.5 0.2 0
19.8 0.2 0
20.1 0.2 0
20.4 0.2 0
20.7 0.2 0
21 0.2 0
21.3 0.2 0
21.6 0.2 0
21.9 0.2 0
22.2 0.2 0
22.5 0.2 0
22.8 0.2 0
23.1 0.2 0
23.4 0.2 0
23.7 0.2 0
24 0.2 0
24.3 0.2 0
24.6 0.2 0
24.9 0.2 0
25.2 0.2 0
25.5 0.2 0
25.8 0.2 0
26.1 0.2 0
26.4 0.2 0
26.7 0.2 0
27 0.2 0
27.3 0.2 0
27.6 0.2 0
27.9 0.2 0
28.2 0.2 0
28.5 0.2 0
28.8 0.2 0
29.1 0.2 0
29.4 0.2 0
29.7 0.2 0
30 0.2 0
0 0.3 0
0.3 0.3 0
0.6 0.3 0
0.9 0.3 0
1.2 0.3 0
1.5 0.3 0
1.8 0.3 0
2.1 0.3 0
2.4 0.3 0
2.7 0.3 0
3 0.3 0
3.3 0.3 0
3.6 0.3 0
3.9 0.3 0
4.2 0.3 0
4.5 0.3 0
4.8 0.3 0
5.1 0.3 0
5.4 0.3 0
5.7 0.3 0
6 0.3 0
6.3 0.3 0
6.6 0.3 0
6.9 0.3 0
7.2 0.3 0
7.5 0.3 0
7.8 0.3 0
8.1 0.3 0
8.4 0.3 0
8.7 0.3 0
9 0.3 0
9.3 0.3 0
9.6 0.3 0
9.9 0.3 0
10.2 0.3 0
10.5 0.3 0
10.8 0.3 0
11.1 0.3 0
11.4 0.3 0
11.7 0.3 0
12 0.3 0
12.3 0.3 0
12.6 0.3 0
12.9 0.3 0
13.2 0.3 0
13.5 0.3 0
13.8 0.3 0
14.1 0.3 0
14.4 0.3 0
14.7 0.3 0
15 0.3 0
15.3 0.3 0
15.6 0.3 0
15.9 0.3 0
16.2 0.3 0
16.5 0.3 0
16.8 0.3 0
17.1 0.3 0
17.4 0.3 0
17.7 0.3 0
18 0.3 0
18.3 0.3 0
18.6 0.3 0
18.9 0.3 0
19.2 0.3 0
19.5 0.3 0
19.8 0.3 0
20.1 0.3 0
20.4 0.3 0
20.7 0.3 0
21 0.3 0
21.3 0.3 0
21.6 0.3 0
21.9 0.3 0
22.2 0.3 0
22.5 0.3 0
22.8 0.3 0
23.1 0.3 0
23.4 0.3 0
23.7 0.3 0
24 0.3 0
24.3 0.3 0
24.6 0.3 0
24.9 0.3 0
25.2 0.3 0
25.5 0.3 0
25.8 0.3 0
26.1 0.3 0
26.4 0.3 0
26.7 0.3 0
27 0.3 0
27.3 0.3 0
27.6 0.3 0
27.9 0.3 0
28.2 0.3 0
28.5 0.3 0
28.8 0.3 0
29.1 0.3 0
29.4 0.3 0
29.7 0.3 0
30 0.3 0
0 0.4 0
0.3 0.4 0
0.6 0.4 0
0.9 0.4 0
1.2 0.4 0
1.5 0.4 0
1.8 0.4 0
2.1 0.4 0
2.4 0.4 0
2.7 0.4 0
3 0.4 0
3.3 0.4 0
3.6 0.4 0
3.9 0.4 0
4.2 0.4 0
4.5 0.4 0
4.8 0.4 0
5.1 0.4 0
5.4 0.4 0
5.7 0.4 0
6 0.4 0
6.3 0.4 0
6.6 0.4 0
6.9 0.4 0
7.2 0.4 0
7.5 0.4 0
7.8 0.4 0
8.1 0.4 0
8.4 0.4 0
8.7 0.4 0
9 0.4 0
9.3 0.4 0
9.6 0.4 0
9.9 0.4 0
10.2 0.4 0
10.5 0.4 0
10.8 0.4 0
11.1 0.4 0
11.4 0.4 0
11.7 0.4 0
12 0.4 0
12.3 0.4 0
12.6 0.4 0
12.9 0.4 0
13.2 0.4 0
13.5 0.4 0
13.8 0.4 0
14.1 0.4 0
14.4 0.4 0
14.7 0.4 0
15 0.4 0
15.3 0.4 0
15.6 0.4 0
15.9 0.4 0
16.2 0.4 0
16.5 0.4 0
16.8 0.4 0
17.1 0.4 0
17.4 0.4 0
17.7 0.4 0
18 0.4 0
18.3 0.4 0
18.6 0.4 0
18.9 0.4 0
19.2 0.4 0
19.5 0.4 0
19.8 0.4 0
20.1 0.4 0
20.4 0.4 0
20.7 0.4 0
21 0.4 0
21.3 0.4 0
21.6 0.4 0
21.9 0.4 0
22.2 0.4 0
22.5 0.4 0
22.8 0.4 0
23.1 0.4 0
23.4 0.4 0
23.7 0.4 0
24 0.4 0
24.3 0.4 0
24.6 0.4 0
24.9 0.4 0
25.2 0.4 0
25.5 0.4 0
25.8 0.4 0
26.1 0.4 0
26.4 0.4 0
26.7 0.4 0
27 0.4 0
27.3 0.4 0
27.6 0.4 0
27.9 0.4 0
28.2 0.4 0
28.5 0.4 0
28.8 0.4 0
29.1 0.4 0
29.4 0.4 0
29.7 0.4 0
30 0.4 0
0 0.5 0
0.3 0.5 0
0.6 0.5 0
0.9 0.5 0
1.2 0.5 0
1.5 0.5 0
1.8 0.5 0
2.1 0.5 0
2.4 0.5 0
2.7 0.5 0
3 0.5 0
3.3 0.5 0
3.6 0.5 0
3.9 0.5 0
4.2 0.5 0
4.5 0.5 0
4.8 0.5 0
5.1 0.5 0
5.4 0.5 0
5.7 0.5 0
6 0.5 0
6.3 0.5 0
6.6 0.5 0
6.9 0.5 0
7.2 0.5 0
7.5 0.5 0
7.8 0.5 0
8.1 0.5 0
8.4 0.5 0
8.7 0.5 0
9 0.5 0
9.3 0.5 0
9.6 0.5 0
9.9 0.5 0
10.2 0.5 0
10.5 0.5 0
10.8 0.5 0
11.1 0.5 0
11.4 0.5 0
11.7 0.5 0
12 0.5 0
12.3 0.5 0
12.6 0.5 0
12.9 0.5 0
13.2 0.5 0
13.5 0.5 0
13.8 0.5 0
14.1 0.5 0
14.4 0.5 0
14.7 0.5 0
15 0.5 0
15.3 0.5 0
15.6 0.5 0
15.9 0.5 0
16.2 0.5 0
16.5 0.5 0
16.8 0.5 0
17.1 0.5 0
17.4 0.5 0
17.7 0.5 0
18 0.5 0
18.3 0.5 0
18.6 0.5 0
18.9 0.5 0
19.2 0.5 0
19.5 0.5 0
19.8 0.5 0
20.1 0.5 0
20.4 0.5 0
20.7 0.5 0
21 0.5 0
21.3 0.5 0
21.6 0.5 0
21.9 0.5 0
22.2 0.5 0
22.5 0.5 0
22.8 0.5 0
23.1 0.5 0
23.4 0.5 0
23.7 0.5 0
24 0.5 0
24.3 0.5 0
24.6 0.5 0
24.9 0.5 0
25.2 0.5 0
25.5 0.5 0
25.8 0.5 0
26.1 0.5 0
26.4 0.5 0
26.7 0.5 0
27 0.5 0
27.3 0.5 0
27.6 0.5 0
27.9 0.5 0
28.2 0.5 0
28.5 0.5 0
28.8 0.5 0
29.1 0.5 0
29.4 0.5 0
29.7 0.5 0
30 0.5 0
0 0.6 0
0.3 0.6 0
0.6 0.6 0
0.9 0.6 0
1.2 0.6 0
1.5 0.6 0
1.8 0.6 0
2.1 0.6 0
2.4 0.6 0
2.7 0.6 0
3 0.6 0
3.3 0.6 0
3.6 0.6 0
3.9 0.6 0
4.2 0.6 0
4.5 0.6 0
4.8 0.6 0
5.1 0.6 0
5.4 0.6 0
5.7 0.6 0
6 0.6 0
6.3 0.6 0
6.6 0.6 0
6.9 0.6 0
7.2 0.6 0
7.5 0.6 0
7.8 0.6 0
8.1 0.6 0
8.4 0.6 0
8.7 0.6 0
9 0.6 0
9.3 0.6 0
9.6 0.6 0
9.9 0.6 0
10.2 0.6 0
10.5 0.6 0
10.8 0.6 0
11.1 0.6 0
11.4 0.6 0
11.7 0.6 0
12 0.6 0
12.3 0.6 0
12.6 0.6 0
12.9 0.6 0
13.2 0.6 0
13.5 0.6 0
13.8 0.6 0
14.1 0.6 0
14.4 0.6 0
14.7 0.6 0
15 0.6 0
15.3 0.6 0
15.6 0.6 0
15.9 0.6 0
16.2 0.6 0
16.5 0.6 0
16.8 0.6 0
17.1 0.6 0
17.4 0.6 0
17.7 0.6 0
18 0.6 0
18.3 0.6 0
18.6 0.6 0
18.9 0.6 0
19.2 0.6 0
19.5 0.6 0
19.8 0.6 0
20.1 0.6 0
20.4 0.6 0
20.7 0.6 0
21 0.6 0
21.3 0.6 0
21.6 0.6 0
21.9 0.6 0
22.2 0.6 0
22.5 0.6 0
22.8 0.6 0
23.1 0.6 0
23.4 0.6 0
23.7 0.6 0
24 0.6 0
24.3 0.6 0
24.6 0.6 0
24.9 0.6 0
25.2 0.6 0
25.5 0.6 0
25.8 0.6 0
26.1 0.6 0
26.4 0.6 0
26.7 0.6 0
27 0.6 0
27.3 0.6 0
27.6 0.6 0
27.9 0.6 0
28.2 0.6 0
28.5 0.6 0
28.8 0.6 0
29.1 0.6 0
29.4 0.6 0
29.7 0.6 0
30 0.6 0
0 0.7 0
0.3 0.7 0
0.6 0.7 0
0.9 0.7 0
1.2 0.7 0
1.5 0.7 0
1.8 0.7 0
2.1 0.7 0
2.4 0.7 0
2.7 0.7 0
3 0.7 0
3.3 0.7 0
3.6 0.7 0
3.9 0.7 0
4.2 0.7 0
4.5 0.7 0
4.8 0.7 0
5.1 0.7 0
5.4 0.7 0
5.7 0.7 0
6 0.7 0
6.3 0.7 0
6.6 0.7 0
6.9 0.7 0
7.2 0.7 0
7.5 0.7 0
7.8 0.7 0
8.1 0.7 0
8.4 0.7 0
8.7 0.7 0
9 0.7 0
9.3 0.7 0
9.6 0.7 0
9.9 0.7 0
10.2 0.7 0
10.5 0.7 0
10.8 0.7 0
11.1 0.7 0
11.4 0.7 0
11.7 0.7 0
12 0.7 0
12.3 0.7 0
12.6 0.7 0
12.9 0.7 0
13.2 0.7 0
13.5 0.7 0
13.8 0.7 0
14.1 0.7 0
14.4 0.7 0
14.7 0.7 0
15 0.7 0
15.3 0.7 0
15.6 0.7 0
15.9 0.7 0
16.2 0.7 0
16.5 0.7 0
16.8 0.7 0
17.1 0.7 0
17.4 0.7 0
17.7 0.7 0
18 0.7 0
18.3 0.7 0
18.6 0.7 0
18.9 0.7 0
19.2 0.7 0
19.5 0.7 0
19.8 0.7 0
20.1 0.7 0
20.4 0.7 0
20.7 0.7 0
21 0.7 0
21.3 0.7 0
21.6 0.7 0
21.9 0.7 0
22.2 0.7 0
22.5 0.7 0
22.8 0.7 0
23.1 0.7 0
23.4 0.7 0
23.7 0.7 0
24 0.7 0
24.3 0.7 0
24.6 0.7 0
24.9 0.7 0
25.2 0.7 0
25.5 0.7 0
25.8 0.7 0
26.1 0.7 0
26.4 0.7 0
26.7 0.7 0
27 0.7 0
27.3 0.7 0
27.6 0.7 0
27.9 0.7 0
28.2 0.7 0
28.5 0.7 0
28.8 0.7 0
29.1 0.7 0
29.4 0.7 0
29.7 0.7 0
30 0.7 0
0 0.8 0
0.3 0.8 0
0.6 0.8 0
0.9 0.8 0
1.2 0.8 0
1.5 0.8 0
1.8 0.8 0
2.1 0.8 0
2.4 0.8 0
2.7 0.8 0
3 0.8 0
3.3 0.8 0
3.6 0.8 0
3.9 0.8 0
4.2 0.8 0
4.5 0.8 0
4.8 0.8 0
5.1 0.8 0
5.4 0.8 0
5.7 0.8 0
6 0.8 0
6.3 0.8 0
6.6 0.8 0
6.9 0.8 0
7.2 0.8 0
7.5 0.8 0
7.8 0.8 0
8.1 0.8 0
8.4 0.8 0
8.7 0.8 0
9 0.8 0
9.3 0.8 0
9.6 0.8 0
9.9 0.8 0
10.2 0.8 0
10.5 0.8 0
10.8 0.8 0
11.1 0.8 0
11.4 0.8 0
11.7 0.8 0
12 0.8 0
12.3 0.8 0
12.6 0.8 0
12.9 0.8 0
13.2 0.8 0
13.5 0.8 0
13.8 0.8 0
14.1 0.8 0
14.4 0.8 0
14.7 0.8 0
15 0.8 0
15.3 0.8 0
15.6 0.8 0
15.9 0.8 0
16.2 0.8 0
16.5 0.8 0
16.8 0.8 0
17.1 0.8 0
17.4 0.8 0
17.7 0.8 0
18 0.8 0
18.3 0.8 0
18.6 0.8 0
18.9 0.8 0
19.2 0.8 0
19.5 0.8 0
19.8 0.8 0
20.1 0.8 0
20.4 0.8 0
20.7 0.8 0
21 0.8 0
21.3 0.8 0
21.6 0.8 0
21.9 0.8 0
22.2 0.8 0
22.5 0.8 0
22.8 0.8 0
23.1 0.8 0
23.4 0.8 0
23.7 0.8 0
24 0.8 0
24.3 0.8 0
24.6 0.8 0
24.9 0.8 0
25.2 0.8 0
25.5 0.8 0
25.8 0.8 0
26.1 0.8 0
26.4 0.8 0
26.7 0.8 0
27 0.8 0
27.3 0.8 0
27.6 0.8 0
27.9 0.8 0
28.2 0.8 0
28.5 0.8 0
28.8 0.8 0
29.1 0.8 0
29.4 0.8 0
29.7 0.8 0
30 0.8 0
0 0.9 0
0.3 0.9 0
0.6 0.9 0
0.9 0.9 0
1.2 0.9 0
1.5 0.9 0
1.8 0.9 0
2.1 0.9 0
2.4 0.9 0
2.7 0.9 0
3 0.9 0
3.3 0.9 0
3.6 0.9 0
3.9 0.9 0
4.2 0.9 0
4.5 0.9 0
4.8 0.9 0
5.1 0.9 0
5.4 0.9 0
5.7 0.9 0
6 0.9 0
6.3 0.9 0
6.6 0.9 0
6.9 0.9 0
7.2 0.9 0
7.5 0.9 0
7.8 0.9 0
8.1 0.9 0
8.4 0.9 0
8.7 0.9 0
9 0.9 0
9.3 0.9 0
9.6 0.9 0
9.9 0.9 0
10.2 0.9 0
10.5 0.9 0
10.8 0.9 0
11.1 0.9 0
11.4 0.9 0
11.7 0.9 0
12 0.9 0
12.3 0.9 0
12.6 0.9 0
12.9 0.9 0
13.2 0.9 0
13.5 0.9 0
13.8 0.9 0
14.1 0.9 0
14.4 0.9 0
14.7 0.9 0
15 0.9 0
15.3 0.9 0
15.6 0.9 0
15.9 0.9 0
16.2 0.9 0
16.5 0.9 0
16.8 0.9 0
17.1 0.9 0
17.4 0.9 0
17.7 0.9 0
18 0.9 0
18.3 0.9 0
18.6 0.9 0
18.9 0.9 0
19.2 0.9 0
19.5 0.9 0
19.8 0.9 0
20.1 0.9 0
20.4 0.9 0
20.7 0.9 0
21 0.9 0
21.3 0.9 0
21.6 0.9 0
21.9 0.9 0
22.2 0.9 0
22.5 0.9 0
22.8 0.9 0
23.1 0.9 0
23.4 0.9 0
23.7 0.9 0
24 0.9 0
24.3 0.9 0
24.6 0.9 0
24.9 0.9 0
25.2 0.9 0
25.5 0.9 0
25.8 0.9 0
26.1 0.9 0
26.4 0.9 0
26.7 0.9 0
27 0.9 0
27.3 0.9 0
27.6 0.9 0
27.9 0.9 0
28.2 0.9 0
28.5 0.9 0
28.8 0.9 0
29.1 0.9 0
29.4 0.9 0
29.7 0.9 0
30 0.9 0
0 1 0
0.3 1 0
0.6 1 0
0.9 1 0
1.2 1 0
1.5 1 0
1.8 1 0
2.1 1 0
2.4 1 0
2.7 1 0
3 1 0
3.3 1 0
3.6 1 0
3.9 1 0
4.2 1 0
4.5 1 0
4.8 1 0
5.1 1 0
5.4 1 0
5.7 1 0
6 1 0
6.3 1 0
6.6 1 0
6.9 1 0
7.2 1 0
7.5 1 0
7.8 1 0
8.1 1 0
8.4 1 0
8.7 1 0
9 1 0
9.3 1 0
9.6 1 0
9.9 1 0
10.2 1 0
10.5 1 0
10.8 1 0
11.1 1 0
11.4 1 0
11.7 1 0
12 1 0
12.3 1 0
12.6 1 0
12.9 1 0
13.2 1 0
13.5 1 0
13.8 1 0
14.1 1 0
14.4 1 0
14.7 1 0
15 1 0
15.3 1 0
15.6 1 0
15.9 1 0
16.2 1 0
16.5 1 0
16.8 1 0
17.1 1 0
17.4 1 0
17.7 1 0
18 1 0
18.3 1 0
18.6 1 0
18.9 1 0
19.2 1 0
19.5 1 0
19.8 1 0
20.1 1 0
20.4 1 0
20.7 1 0
21 1 0
21.3 1 0
21.6 1 0
21.9 1 0
22.2 1 0
22.5 1 0
22.8 1 0
23.1 1 0
23.4 1 0
23.7 1 0
24 1 0
24.3 1 0
24.6 1 0
24.9 1 0
25.2 1 0
25.5 1 0
25.8 1 0
26.1 1 0
26.4 1 0
26.7 1 0
27 1 0
27.3 1 0
27.6 1 0
27.9 1 0
28.2 1 0
28.5 1 0
28.8 1 0
29.1 1 0
29.4 1 0
29.7 1 0
30 1 0

POINT_DATA 1111

SCALARS u double
LOOKUP_TABLE default
-1
-0.892043
-0.781757
-0.688942
-0.614561
-0.556455
-0.511778
-0.47771
-0.45176
-0.431883
-0.416488
-0.404381
-0.394688
-0.386781
-0.38021
-0.374655
-0.369887
-0.365743
-0.362102
-0.358874
-0.355993
-0.353406
-0.351072
-0.34896
-0.347042
-0.345296
-0.343703
-0.342248
-0.340916
-0.339696
-0.338577
-0.337549
-0.336604
-0.335736
-0.334937
-0.334201
-0.333522
-0.332898
-0.332321
-0.33179
-0.331299
-0.330846
-0.330428
-0.330042
-0.329686
-0.329356
-0.329052
-0.32877
-0.32851
-0.32827
-0.328047
-0.327842
-0.327652
-0.327476
-0.327313
-0.327163
-0.327024
-0.326895
-0.326776
-0.326666
-0.326564
-0.32647
-0.326383
-0.326302
-0.326227
-0.326158
-0.326094
-0.326035
-0.32598
-0.32593
-0.325883
-0.325839
-0.3258
-0.325763
-0.325729
-0.325698
-0.32567
-0.325644
-0.32562
-0.325599
-0.32558
-0.325563
-0.325548
-0.325534
-0.325522
-0.325512
-0.325503
-0.325496
-0.325489
-0.325484
-0.325479
-0.325475
-0.325472
-0.32547
-0.325468
-0.325466
-0.325465
-0.325464
-0.325463
-0.325463
-1
1
0.892043
0.781757
0.688942
0.614561
0.556455
0.511778
0.47771
0.45176
0.431883
0.416488
0.404381
0.394688
0.386781
0.38021
0.374655
0.369887
0.365743
0.362102
0.358874
0.355993
0.353406
0.351072
0.34896
0.347042
0.345296
0.343703
0.342248
0.340916
0.339696
0.338577
0.337549
0.336604
0.335736
0.334937
0.334201
0.333522
0.332898
0.332321
0.33179
0.331299
0.330846
0.330428
0.330042
0.329686
0.329356
0.329052
0.32877
0.32851
0.32827
0.328047
0.327842
0.327652
0.327476
0.327313
0.327163
0.327024
0.326895
0.326776
0.326666
0.326564
0.32647
0.326383
0.326302
0.326227
0.326158
0.326094
0.326035
0.32598
0.32593
0.325883
0.325839
0.3258
0.325763
0.325729
0.325698
0.32567
0.325644
0.32562
0.325599
0.32558
0.325563
0.325548
0.325534
0.325522
0.325512
0.325503
0.325496
0.325489
0.325484
0.325479
0.325475
0.325472
0.32547
0.325468
0.325466
0.325465
0.325464
0.325463
0.325463
1
1
1.03004
1.03872
1.03588
1.02713
1.01543
1.00247
0.989261
0.976369
0.964124
0.95269
0.942133
0.93246
0.923639
0.915621
0.908346
0.901749
0.895769
0.890345
0.885421
0.880947
0.876878
0.873172
0.869794
0.866709
0.863891
0.861312
0.858951
0.856786
0.8548
0.852977
0.851301
0.849761
0.848344
0.84704
0.845838
0.844731
0.843711
0.84277
0.841902
0.841101
0.840362
0.83968
0.83905
0.838468
0.83793
0.837434
0.836975
0.836551
0.836159
0.835796
0.835461
0.835151
0.834865
0.8346
0.834355
0.834129
0.833919
0.833725
0.833546
0.83338
0.833226
0.833084
0.832953
0.832832
0.832719
0.832615
0.832519
0.83243
0.832347
0.832271
0.832201
0.832136
0.832077
0.832022
0.831972
0.831926
0.831884
0.831846
0.831812
0.831781
0.831753
0.831729
0.831707
0.831688
0.831672
0.831658
0.831645
0.831635
0.831626
0.831619
0.831613
0.831608
0.831604
0.831601
0.831598
0.831596
0.831594
0.831594
0.831594
1
1
1.03528
1.07404
1.1071
1.13349
1.15381
1.16904
1.18023
1.18831
1.19405
1.19805
1.20077
1.20255
1.20365
1.20425
1.20449
1.20448
1.20428
1.20396
1.20355
1.20308
1.20258
1.20206
1.20154
1.20102
1.20051
1.20002
1.19955
1.1991
1.19868
1.19827
1.19789
1.19753
1.1972
1.19688
1.19659
1.19631
1.19606
1.19582
1.1956
1.19539
1.1952
1.19502
1.19485
1.1947
1.19456
1.19442
1.1943
1.19419
1.19408
1.19399
1.1939
1.19381
1.19373
1.19366
1.1936
1.19354
1.19348
1.19343
1.19338
1.19333
1.19329
1.19325
1.19322
1.19318
1.19315
1.19312
1.1931
1.19307
1.19305
1.19303
1.19301
1.19299
1.19298
1.19296
1.19295
1.19293
1.19292
1.19291
1.1929
1.19289
1.19288
1.19288
1.19287
1.19286
1.19286
1.19286
1.19285
1.19285
1.19284
1.19284
1.19284
1.19284
1.19284
1.19284
1.19283
1.19283
1.19283
1.19283
1.19283
1
1
1.02921
1.07124
1.11265
1.14986
1.18204
1.20937
1.23242
1.25188
1.26841
1.28257
1.29484
1.30555
1.31499
1.32338
1.33087
1.3376
1.34366
1.34915
1.35412
1.35865
1.36277
1.36653
1.36997
1.37311
1.37599
1.37863
1.38105
1.38327
1.38531
1.38719
1.38892
1.39051
1.39197
1.39332
1.39457
1.39571
1.39677
1.39774
1.39864
1.39948
1.40024
1.40095
1.4016
1.40221
1.40277
1.40328
1.40376
1.4042
1.40461
1.40499
1.40533
1.40566
1.40595
1.40623
1.40648
1.40672
1.40694
1.40714
1.40733
1.4075
1.40766
1.40781
1.40794
1.40807
1.40819
1.4083
1.4084
1.40849
1.40857
1.40865
1.40873
1.40879
1.40886
1.40891
1.40897
1.40901
1.40906
1.4091
1.40913
1.40917
1.40919
1.40922
1.40924
1.40926
1.40928
1.4093
1.40931
1.40932
1.40933
1.40934
1.40934
1.40935
1.40935
1.40936
1.40936
1.40936
1.40936
1.40936
1.40936
1
1
1.02685
1.06849
1.11086
1.14991
1.18452
1.21467
1.24075
1.26336
1.28307
1.3004
1.31576
1.3295
1.34188
1.35308
1.36327
1.37257
1.38109
1.3889
1.39607
1.40267
1.40874
1.41433
1.41949
1.42424
1.42862
1.43267
1.4364
1.43984
1.44302
1.44596
1.44868
1.45118
1.4535
1.45564
1.45761
1.45944
1.46113
1.46269
1.46413
1.46547
1.4667
1.46784
1.4689
1.46987
1.47078
1.47161
1.47238
1.4731
1.47376
1.47437
1.47493
1.47545
1.47594
1.47639
1.4768
1.47718
1.47754
1.47786
1.47817
1.47845
1.47871
1.47895
1.47917
1.47938
1.47957
1.47974
1.47991
1.48006
1.4802
1.48032
1.48044
1.48055
1.48065
1.48075
1.48083
1.48091
1.48098
1.48105
1.48111
1.48116
1.48121
1.48125
1.48129
1.48132
1.48135
1.48138
1.4814
1.48142
1.48143
1.48144
1.48146
1.48147
1.48147
1.48148
1.48148
1.48149
1.48149
1.48149
1.48149
1
1
1.02921
1.07124
1.11265
1.14986
1.18204
1.20937
1.23242
1.25188
1.26841
1.28257
1.29484
1.30555
1.31499
1.32338
1.33087
1.3376
1.34366
1.34915
1.35412
1.35865
1.36277
1.36653
1.36997
1.37311
1.37599
1.37863
1.38105
1.38327
1.38531
1.38719
1.38892
1.39051
1.39197
1.39332
1.39457
1.39571
1.39677
1.39774
1.39864
1.39948
1.40024
1.40095
1.40161
1.40221
1.40277
1.40328
1.40376
1.4042
1.40461
1.40499
1.40533
1.40566
1.40595
1.40623
1.40649
1.40672
1.40694
1.40714
1.40733
1.4075
1.40766
1.40781
1.40794
1.40807
1.40819
1.4083
1.4084
1.40849
1.40857
1.40865
1.40873
1.40879
1.40886
1.40891
1.40897
1.40901
1.40906
1.4091
1.40913
1.40917
1.40919
1.40922
1.40924
1.40926
1.40928
1.4093
1.40931
1.40932
1.40933
1.40934
1.40934
1.40935
1.40935
1.40936
1.40936
1.40936
1.40936
1.40936
1.40936
1
1
1.03528
1.07404
1.1071
1.13349
1.15381
1.16904
1.18023
1.18831
1.19405
1.19805
1.20077
1.20255
1.20365
1.20425
1.20449
1.20448
1.20428
1.20396
1.20355
1.20308
1.20258
1.20206
1.20154
1.20102
1.20051
1.20002
1.19955
1.1991
1.19868
1.19827
1.19789
1.19753
1.1972
1.19688
1.19659
1.19631
1.19606
1.19582
1.1956
1.19539
1.1952
1.19502
1.19485
1.1947
1.19456
1.19443
1.1943
1.19419
1.19408
1.19399
1.1939
1.19381
1.19374
1.19366
1.1936
1.19354
1.19348
1.19343
1.19338
1.19333
1.19329
1.19325
1.19322
1.19318
1.19315
1.19312
1.1931
1.19307
1.19305
1.19303
1.19301
1.19299
1.19298
1.19296
1.19295
1.19293
1.19292
1.19291
1.1929
1.19289
1.19289
1.19288
1.19287
1.19287
1.19286
1.19286
1.19285
1.19285
1.19285
1.19284
1.19284
1.19284
1.19284
1.19284
1.19283
1.19283
1.19283
1.19283
1.19283
1
1
1.03004
1.03872
1.03588
1.02713
1.01543
1.00247
0.989261
0.976369
0.964124
0.95269
0.942133
0.93246
0.923639
0.915621
0.908346
0.90175
0.895769
0.890345
0.885421
0.880948
0.876878
0.873173
0.869794
0.86671
0.863891
0.861312
0.858951
0.856786
0.854801
0.852977
0.851302
0.849762
0.848344
0.84704
0.845839
0.844732
0.843711
0.84277
0.841903
0.841102
0.840363
0.83968
0.83905
0.838468
0.837931
0.837434
0.836975
0.836551
0.836159
0.835797
0.835462
0.835152
0.834865
0.834601
0.834356
0.834129
0.833919
0.833726
0.833546
0.83338
0.833227
0.833085
0.832954
0.832832
0.83272
0.832616
0.832519
0.83243
0.832348
0.832272
0.832202
0.832137
0.832077
0.832022
0.831972
0.831926
0.831885
0.831847
0.831812
0.831781
0.831754
0.831729
0.831708
0.831689
0.831672
0.831658
0.831646
0.831636
0.831627
0.83162
0.831614
0.831609
0.831604
0.831601
0.831599
0.831596
0.831595
0.831594
0.831594
1
1
0.892043
0.781757
0.688942
0.614561
0.556455
0.511778
0.47771
0.45176
0.431883
0.416488
0.404381
0.394688
0.386781
0.38021
0.374655
0.369888
0.365743
0.362102
0.358874
0.355993
0.353406
0.351072
0.34896
0.347042
0.345296
0.343703
0.342248
0.340916
0.339696
0.338577
0.337549
0.336605
0.335736
0.334937
0.334201
0.333523
0.332898
0.332321
0.33179
0.331299
0.330847
0.330428
0.330042
0.329686
0.329356
0.329052
0.328771
0.32851
0.32827
0.328048
0.327842
0.327652
0.327476
0.327314
0.327163
0.327024
0.326896
0.326776
0.326666
0.326564
0.32647
0.326383
0.326302
0.326228
0.326158
0.326094
0.326035
0.32598
0.32593
0.325883
0.32584
0.3258
0.325763
0.325729
0.325698
0.32567
0.325644
0.32562
0.325599
0.32558
0.325563
0.325548
0.325534
0.325523
0.325512
0.325504
0.325496
0.32549
0.325484
0.32548
0.325476
0.325473
0.32547
0.325468
0.325466
0.325465
0.325464
0.325463
0.325463
1
-1
-0.892043
-0.781757
-0.688942
-0.614561
-0.556455
-0.511778
-0.47771
-0.45176
-0.431883
-0.416488
-0.404381
-0.394688
-0.386781
-0.38021
-0.374655
-0.369888
-0.365743
-0.362102
-0.358874
-0.355993
-0.353406
-0.351072
-0.34896
-0.347042
-0.345296
-0.343703
-0.342248
-0.340916
-0.339696
-0.338577
-0.337549
-0.336605
-0.335736
-0.334937
-0.334201
-0.333523
-0.332898
-0.332321
-0.33179
-0.331299
-0.330847
-0.330428
-0.330042
-0.329686
-0.329356
-0.329052
-0.328771
-0.32851
-0.32827
-0.328048
-0.327842
-0.327652
-0.327476
-0.327314
-0.327163
-0.327024
-0.326896
-0.326776
-0.326666
-0.326564
-0.32647
-0.326383
-0.326302
-0.326228
-0.326158
-0.326094
-0.326035
-0.32598
-0.32593
-0.325883
-0.32584
-0.3258
-0.325763
-0.325729
-0.325698
-0.32567
-0.325644
-0.32562
-0.325599
-0.32558
-0.325563
-0.325548
-0.325534
-0.325523
-0.325512
-0.325504
-0.325496
-0.32549
-0.325484
-0.32548
-0.325476
-0.325473
-0.32547
-0.325468
-0.325466
-0.325465
-0.325464
-0.325463
-0.325463
-1
