# vtk DataFile Version 2.0
FlowField
ASCII
DATASET STRUCTURED_GRID
DIMENSIONS 102 13 1 
POINTS 1326 double
0 0 0
0.3 0 0
0.6 0 0
0.9 0 0
1.2 0 0
1.5 0 0
1.8 0 0
2.1 0 0
2.4 0 0
2.7 0 0
3 0 0
3.3 0 0
3.6 0 0
3.9 0 0
4.2 0 0
4.5 0 0
4.8 0 0
5.1 0 0
5.4 0 0
5.7 0 0
6 0 0
6.3 0 0
6.6 0 0
6.9 0 0
7.2 0 0
7.5 0 0
7.8 0 0
8.1 0 0
8.4 0 0
8.7 0 0
9 0 0
9.3 0 0
9.6 0 0
9.9 0 0
10.2 0 0
10.5 0 0
10.8 0 0
11.1 0 0
11.4 0 0
11.7 0 0
12 0 0
12.3 0 0
12.6 0 0
12.9 0 0
13.2 0 0
13.5 0 0
13.8 0 0
14.1 0 0
14.4 0 0
14.7 0 0
15 0 0
15.3 0 0
15.6 0 0
15.9 0 0
16.2 0 0
16.5 0 0
16.8 0 0
17.1 0 0
17.4 0 0
17.7 0 0
18 0 0
18.3 0 0
18.6 0 0
18.9 0 0
19.2 0 0
19.5 0 0
19.8 0 0
20.1 0 0
20.4 0 0
20.7 0 0
21 0 0
21.3 0 0
21.6 0 0
21.9 0 0
22.2 0 0
22.5 0 0
22.8 0 0
23.1 0 0
23.4 0 0
23.7 0 0
24 0 0
24.3 0 0
24.6 0 0
24.9 0 0
25.2 0 0
25.5 0 0
25.8 0 0
26.1 0 0
26.4 0 0
26.7 0 0
27 0 0
27.3 0 0
27.6 0 0
27.9 0 0
28.2 0 0
28.5 0 0
28.8 0 0
29.1 0 0
29.4 0 0
29.7 0 0
30 0 0
30.3 0 0
0 0.1 0
0.3 0.1 0
0.6 0.1 0
0.9 0.1 0
1.2 0.1 0
1.5 0.1 0
1.8 0.1 0
2.1 0.1 0
2.4 0.1 0
2.7 0.1 0
3 0.1 0
3.3 0.1 0
3.6 0.1 0
3.9 0.1 0
4.2 0.1 0
4.5 0.1 0
4.8 0.1 0
5.1 0.1 0
5.4 0.1 0
5.7 0.1 0
6 0.1 0
6.3 0.1 0
6.6 0.1 0
6.9 0.1 0
7.2 0.1 0
7.5 0.1 0
7.8 0.1 0
8.1 0.1 0
8.4 0.1 0
8.7 0.1 0
9 0.1 0
9.3 0.1 0
9.6 0.1 0
9.9 0.1 0
10.2 0.1 0
10.5 0.1 0
10.8 0.1 0
11.1 0.1 0
11.4 0.1 0
11.7 0.1 0
12 0.1 0
12.3 0.1 0
12.6 0.1 0
12.9 0.1 0
13.2 0.1 0
13.5 0.1 0
13.8 0.1 0
14.1 0.1 0
14.4 0.1 0
14.7 0.1 0
15 0.1 0
15.3 0.1 0
15.6 0.1 0
15.9 0.1 0
16.2 0.1 0
16.5 0.1 0
16.8 0.1 0
17.1 0.1 0
17.4 0.1 0
17.7 0.1 0
18 0.1 0
18.3 0.1 0
18.6 0.1 0
18.9 0.1 0
19.2 0.1 0
19.5 0.1 0
19.8 0.1 0
20.1 0.1 0
20.4 0.1 0
20.7 0.1 0
21 0.1 0
21.3 0.1 0
21.6 0.1 0
21.9 0.1 0
22.2 0.1 0
22.5 0.1 0
22.8 0.1 0
23.1 0.1 0
23.4 0.1 0
23.7 0.1 0
24 0.1 0
24.3 0.1 0
24.6 0.1 0
24.9 0.1 0
25.2 0.1 0
25.5 0.1 0
25.8 0.1 0
26.1 0.1 0
26.4 0.1 0
26.7 0.1 0
27 0.1 0
27.3 0.1 0
27.6 0.1 0
27.9 0.1 0
28.2 0.1 0
28.5 0.1 0
28.8 0.1 0
29.1 0.1 0
29.4 0.1 0
29.7 0.1 0
30 0.1 0
30.3 0.1 0
0 0.2 0
0.3 0.2 0
0.6 0.2 0
0.9 0.2 0
1.2 0.2 0
1.5 0.2 0
1.8 0.2 0
2.1 0.2 0
2.4 0.2 0
2.7 0.2 0
3 0.2 0
3.3 0.2 0
3.6 0.2 0
3.9 0.2 0
4.2 0.2 0
4.5 0.2 0
4.8 0.2 0
5.1 0.2 0
5.4 0.2 0
5.7 0.2 0
6 0.2 0
6.3 0.2 0
6.6 0.2 0
6.9 0.2 0
7.2 0.2 0
7.5 0.2 0
7.8 0.2 0
8.1 0.2 0
8.4 0.2 0
8.7 0.2 0
9 0.2 0
9.3 0.2 0
9.6 0.2 0
9.9 0.2 0
10.2 0.2 0
10.5 0.2 0
10.8 0.2 0
11.1 0.2 0
11.4 0.2 0
11.7 0.2 0
12 0.2 0
12.3 0.2 0
12.6 0.2 0
12.9 0.2 0
13.2 0.2 0
13.5 0.2 0
13.8 0.2 0
14.1 0.2 0
14.4 0.2 0
14.7 0.2 0
15 0.2 0
15.3 0.2 0
15.6 0.2 0
15.9 0.2 0
16.2 0.2 0
16.5 0.2 0
16.8 0.2 0
17.1 0.2 0
17.4 0.2 0
17.7 0.2 0
18 0.2 0
18.3 0.2 0
18.6 0.2 0
18.9 0.2 0
19.2 0.2 0
19.5 0.2 0
19.8 0.2 0
20.1 0.2 0
20.4 0.2 0
20.7 0.2 0
21 0.2 0
21.3 0.2 0
21.6 0.2 0
21.9 0.2 0
22.2 0.2 0
22.5 0.2 0
22.8 0.2 0
23.1 0.2 0
23.4 0.2 0
23.7 0.2 0
24 0.2 0
24.3 0.2 0
24.6 0.2 0
24.9 0.2 0
25.2 0.2 0
25.5 0.2 0
25.8 0.2 0
26.1 0.2 0
26.4 0.2 0
26.7 0.2 0
27 0.2 0
27.3 0.2 0
27.6 0.2 0
27.9 0.2 0
28.2 0.2 0
28.5 0.2 0
28.8 0.2 0
29.1 0.2 0
29.4 0.2 0
29.7 0.2 0
30 0.2 0
30.3 0.2 0
0 0.3 0
0.3 0.3 0
0.6 0.3 0
0.9 0.3 0
1.2 0.3 0
1.5 0.3 0
1.8 0.3 0
2.1 0.3 0
2.4 0.3 0
2.7 0.3 0
3 0.3 0
3.3 0.3 0
3.6 0.3 0
3.9 0.3 0
4.2 0.3 0
4.5 0.3 0
4.8 0.3 0
5.1 0.3 0
5.4 0.3 0
5.7 0.3 0
6 0.3 0
6.3 0.3 0
6.6 0.3 0
6.9 0.3 0
7.2 0.3 0
7.5 0.3 0
7.8 0.3 0
8.1 0.3 0
8.4 0.3 0
8.7 0.3 0
9 0.3 0
9.3 0.3 0
9.6 0.3 0
9.9 0.3 0
10.2 0.3 0
10.5 0.3 0
10.8 0.3 0
11.1 0.3 0
11.4 0.3 0
11.7 0.3 0
12 0.3 0
12.3 0.3 0
12.6 0.3 0
12.9 0.3 0
13.2 0.3 0
13.5 0.3 0
13.8 0.3 0
14.1 0.3 0
14.4 0.3 0
14.7 0.3 0
15 0.3 0
15.3 0.3 0
15.6 0.3 0
15.9 0.3 0
16.2 0.3 0
16.5 0.3 0
16.8 0.3 0
17.1 0.3 0
17.4 0.3 0
17.7 0.3 0
18 0.3 0
18.3 0.3 0
18.6 0.3 0
18.9 0.3 0
19.2 0.3 0
19.5 0.3 0
19.8 0.3 0
20.1 0.3 0
20.4 0.3 0
20.7 0.3 0
21 0.3 0
21.3 0.3 0
21.6 0.3 0
21.9 0.3 0
22.2 0.3 0
22.5 0.3 0
22.8 0.3 0
23.1 0.3 0
23.4 0.3 0
23.7 0.3 0
24 0.3 0
24.3 0.3 0
24.6 0.3 0
24.9 0.3 0
25.2 0.3 0
25.5 0.3 0
25.8 0.3 0
26.1 0.3 0
26.4 0.3 0
26.7 0.3 0
27 0.3 0
27.3 0.3 0
27.6 0.3 0
27.9 0.3 0
28.2 0.3 0
28.5 0.3 0
28.8 0.3 0
29.1 0.3 0
29.4 0.3 0
29.7 0.3 0
30 0.3 0
30.3 0.3 0
0 0.4 0
0.3 0.4 0
0.6 0.4 0
0.9 0.4 0
1.2 0.4 0
1.5 0.4 0
1.8 0.4 0
2.1 0.4 0
2.4 0.4 0
2.7 0.4 0
3 0.4 0
3.3 0.4 0
3.6 0.4 0
3.9 0.4 0
4.2 0.4 0
4.5 0.4 0
4.8 0.4 0
5.1 0.4 0
5.4 0.4 0
5.7 0.4 0
6 0.4 0
6.3 0.4 0
6.6 0.4 0
6.9 0.4 0
7.2 0.4 0
7.5 0.4 0
7.8 0.4 0
8.1 0.4 0
8.4 0.4 0
8.7 0.4 0
9 0.4 0
9.3 0.4 0
9.6 0.4 0
9.9 0.4 0
10.2 0.4 0
10.5 0.4 0
10.8 0.4 0
11.1 0.4 0
11.4 0.4 0
11.7 0.4 0
12 0.4 0
12.3 0.4 0
12.6 0.4 0
12.9 0.4 0
13.2 0.4 0
13.5 0.4 0
13.8 0.4 0
14.1 0.4 0
14.4 0.4 0
14.7 0.4 0
15 0.4 0
15.3 0.4 0
15.6 0.4 0
15.9 0.4 0
16.2 0.4 0
16.5 0.4 0
16.8 0.4 0
17.1 0.4 0
17.4 0.4 0
17.7 0.4 0
18 0.4 0
18.3 0.4 0
18.6 0.4 0
18.9 0.4 0
19.2 0.4 0
19.5 0.4 0
19.8 0.4 0
20.1 0.4 0
20.4 0.4 0
20.7 0.4 0
21 0.4 0
21.3 0.4 0
21.6 0.4 0
21.9 0.4 0
22.2 0.4 0
22.5 0.4 0
22.8 0.4 0
23.1 0.4 0
23.4 0.4 0
23.7 0.4 0
24 0.4 0
24.3 0.4 0
24.6 0.4 0
24.9 0.4 0
25.2 0.4 0
25.5 0.4 0
25.8 0.4 0
26.1 0.4 0
26.4 0.4 0
26.7 0.4 0
27 0.4 0
27.3 0.4 0
27.6 0.4 0
27.9 0.4 0
28.2 0.4 0
28.5 0.4 0
28.8 0.4 0
29.1 0.4 0
29.4 0.4 0
29.7 0.4 0
30 0.4 0
30.3 0.4 0
0 0.5 0
0.3 0.5 0
0.6 0.5 0
0.9 0.5 0
1.2 0.5 0
1.5 0.5 0
1.8 0.5 0
2.1 0.5 0
2.4 0.5 0
2.7 0.5 0
3 0.5 0
3.3 0.5 0
3.6 0.5 0
3.9 0.5 0
4.2 0.5 0
4.5 0.5 0
4.8 0.5 0
5.1 0.5 0
5.4 0.5 0
5.7 0.5 0
6 0.5 0
6.3 0.5 0
6.6 0.5 0
6.9 0.5 0
7.2 0.5 0
7.5 0.5 0
7.8 0.5 0
8.1 0.5 0
8.4 0.5 0
8.7 0.5 0
9 0.5 0
9.3 0.5 0
9.6 0.5 0
9.9 0.5 0
10.2 0.5 0
10.5 0.5 0
10.8 0.5 0
11.1 0.5 0
11.4 0.5 0
11.7 0.5 0
12 0.5 0
12.3 0.5 0
12.6 0.5 0
12.9 0.5 0
13.2 0.5 0
13.5 0.5 0
13.8 0.5 0
14.1 0.5 0
14.4 0.5 0
14.7 0.5 0
15 0.5 0
15.3 0.5 0
15.6 0.5 0
15.9 0.5 0
16.2 0.5 0
16.5 0.5 0
16.8 0.5 0
17.1 0.5 0
17.4 0.5 0
17.7 0.5 0
18 0.5 0
18.3 0.5 0
18.6 0.5 0
18.9 0.5 0
19.2 0.5 0
19.5 0.5 0
19.8 0.5 0
20.1 0.5 0
20.4 0.5 0
20.7 0.5 0
21 0.5 0
21.3 0.5 0
21.6 0.5 0
21.9 0.5 0
22.2 0.5 0
22.5 0.5 0
22.8 0.5 0
23.1 0.5 0
23.4 0.5 0
23.7 0.5 0
24 0.5 0
24.3 0.5 0
24.6 0.5 0
24.9 0.5 0
25.2 0.5 0
25.5 0.5 0
25.8 0.5 0
26.1 0.5 0
26.4 0.5 0
26.7 0.5 0
27 0.5 0
27.3 0.5 0
27.6 0.5 0
27.9 0.5 0
28.2 0.5 0
28.5 0.5 0
28.8 0.5 0
29.1 0.5 0
29.4 0.5 0
29.7 0.5 0
30 0.5 0
30.3 0.5 0
0 0.6 0
0.3 0.6 0
0.6 0.6 0
0.9 0.6 0
1.2 0.6 0
1.5 0.6 0
1.8 0.6 0
2.1 0.6 0
2.4 0.6 0
2.7 0.6 0
3 0.6 0
3.3 0.6 0
3.6 0.6 0
3.9 0.6 0
4.2 0.6 0
4.5 0.6 0
4.8 0.6 0
5.1 0.6 0
5.4 0.6 0
5.7 0.6 0
6 0.6 0
6.3 0.6 0
6.6 0.6 0
6.9 0.6 0
7.2 0.6 0
7.5 0.6 0
7.8 0.6 0
8.1 0.6 0
8.4 0.6 0
8.7 0.6 0
9 0.6 0
9.3 0.6 0
9.6 0.6 0
9.9 0.6 0
10.2 0.6 0
10.5 0.6 0
10.8 0.6 0
11.1 0.6 0
11.4 0.6 0
11.7 0.6 0
12 0.6 0
12.3 0.6 0
12.6 0.6 0
12.9 0.6 0
13.2 0.6 0
13.5 0.6 0
13.8 0.6 0
14.1 0.6 0
14.4 0.6 0
14.7 0.6 0
15 0.6 0
15.3 0.6 0
15.6 0.6 0
15.9 0.6 0
16.2 0.6 0
16.5 0.6 0
16.8 0.6 0
17.1 0.6 0
17.4 0.6 0
17.7 0.6 0
18 0.6 0
18.3 0.6 0
18.6 0.6 0
18.9 0.6 0
19.2 0.6 0
19.5 0.6 0
19.8 0.6 0
20.1 0.6 0
20.4 0.6 0
20.7 0.6 0
21 0.6 0
21.3 0.6 0
21.6 0.6 0
21.9 0.6 0
22.2 0.6 0
22.5 0.6 0
22.8 0.6 0
23.1 0.6 0
23.4 0.6 0
23.7 0.6 0
24 0.6 0
24.3 0.6 0
24.6 0.6 0
24.9 0.6 0
25.2 0.6 0
25.5 0.6 0
25.8 0.6 0
26.1 0.6 0
26.4 0.6 0
26.7 0.6 0
27 0.6 0
27.3 0.6 0
27.6 0.6 0
27.9 0.6 0
28.2 0.6 0
28.5 0.6 0
28.8 0.6 0
29.1 0.6 0
29.4 0.6 0
29.7 0.6 0
30 0.6 0
30.3 0.6 0
0 0.7 0
0.3 0.7 0
0.6 0.7 0
0.9 0.7 0
1.2 0.7 0
1.5 0.7 0
1.8 0.7 0
2.1 0.7 0
2.4 0.7 0
2.7 0.7 0
3 0.7 0
3.3 0.7 0
3.6 0.7 0
3.9 0.7 0
4.2 0.7 0
4.5 0.7 0
4.8 0.7 0
5.1 0.7 0
5.4 0.7 0
5.7 0.7 0
6 0.7 0
6.3 0.7 0
6.6 0.7 0
6.9 0.7 0
7.2 0.7 0
7.5 0.7 0
7.8 0.7 0
8.1 0.7 0
8.4 0.7 0
8.7 0.7 0
9 0.7 0
9.3 0.7 0
9.6 0.7 0
9.9 0.7 0
10.2 0.7 0
10.5 0.7 0
10.8 0.7 0
11.1 0.7 0
11.4 0.7 0
11.7 0.7 0
12 0.7 0
12.3 0.7 0
12.6 0.7 0
12.9 0.7 0
13.2 0.7 0
13.5 0.7 0
13.8 0.7 0
14.1 0.7 0
14.4 0.7 0
14.7 0.7 0
15 0.7 0
15.3 0.7 0
15.6 0.7 0
15.9 0.7 0
16.2 0.7 0
16.5 0.7 0
16.8 0.7 0
17.1 0.7 0
17.4 0.7 0
17.7 0.7 0
18 0.7 0
18.3 0.7 0
18.6 0.7 0
18.9 0.7 0
19.2 0.7 0
19.5 0.7 0
19.8 0.7 0
20.1 0.7 0
20.4 0.7 0
20.7 0.7 0
21 0.7 0
21.3 0.7 0
21.6 0.7 0
21.9 0.7 0
22.2 0.7 0
22.5 0.7 0
22.8 0.7 0
23.1 0.7 0
23.4 0.7 0
23.7 0.7 0
24 0.7 0
24.3 0.7 0
24.6 0.7 0
24.9 0.7 0
25.2 0.7 0
25.5 0.7 0
25.8 0.7 0
26.1 0.7 0
26.4 0.7 0
26.7 0.7 0
27 0.7 0
27.3 0.7 0
27.6 0.7 0
27.9 0.7 0
28.2 0.7 0
28.5 0.7 0
28.8 0.7 0
29.1 0.7 0
29.4 0.7 0
29.7 0.7 0
30 0.7 0
30.3 0.7 0
0 0.8 0
0.3 0.8 0
0.6 0.8 0
0.9 0.8 0
1.2 0.8 0
1.5 0.8 0
1.8 0.8 0
2.1 0.8 0
2.4 0.8 0
2.7 0.8 0
3 0.8 0
3.3 0.8 0
3.6 0.8 0
3.9 0.8 0
4.2 0.8 0
4.5 0.8 0
4.8 0.8 0
5.1 0.8 0
5.4 0.8 0
5.7 0.8 0
6 0.8 0
6.3 0.8 0
6.6 0.8 0
6.9 0.8 0
7.2 0.8 0
7.5 0.8 0
7.8 0.8 0
8.1 0.8 0
8.4 0.8 0
8.7 0.8 0
9 0.8 0
9.3 0.8 0
9.6 0.8 0
9.9 0.8 0
10.2 0.8 0
10.5 0.8 0
10.8 0.8 0
11.1 0.8 0
11.4 0.8 0
11.7 0.8 0
12 0.8 0
12.3 0.8 0
12.6 0.8 0
12.9 0.8 0
13.2 0.8 0
13.5 0.8 0
13.8 0.8 0
14.1 0.8 0
14.4 0.8 0
14.7 0.8 0
15 0.8 0
15.3 0.8 0
15.6 0.8 0
15.9 0.8 0
16.2 0.8 0
16.5 0.8 0
16.8 0.8 0
17.1 0.8 0
17.4 0.8 0
17.7 0.8 0
18 0.8 0
18.3 0.8 0
18.6 0.8 0
18.9 0.8 0
19.2 0.8 0
19.5 0.8 0
19.8 0.8 0
20.1 0.8 0
20.4 0.8 0
20.7 0.8 0
21 0.8 0
21.3 0.8 0
21.6 0.8 0
21.9 0.8 0
22.2 0.8 0
22.5 0.8 0
22.8 0.8 0
23.1 0.8 0
23.4 0.8 0
23.7 0.8 0
24 0.8 0
24.3 0.8 0
24.6 0.8 0
24.9 0.8 0
25.2 0.8 0
25.5 0.8 0
25.8 0.8 0
26.1 0.8 0
26.4 0.8 0
26.7 0.8 0
27 0.8 0
27.3 0.8 0
27.6 0.8 0
27.9 0.8 0
28.2 0.8 0
28.5 0.8 0
28.8 0.8 0
29.1 0.8 0
29.4 0.8 0
29.7 0.8 0
30 0.8 0
30.3 0.8 0
0 0.9 0
0.3 0.9 0
0.6 0.9 0
0.9 0.9 0
1.2 0.9 0
1.5 0.9 0
1.8 0.9 0
2.1 0.9 0
2.4 0.9 0
2.7 0.9 0
3 0.9 0
3.3 0.9 0
3.6 0.9 0
3.9 0.9 0
4.2 0.9 0
4.5 0.9 0
4.8 0.9 0
5.1 0.9 0
5.4 0.9 0
5.7 0.9 0
6 0.9 0
6.3 0.9 0
6.6 0.9 0
6.9 0.9 0
7.2 0.9 0
7.5 0.9 0
7.8 0.9 0
8.1 0.9 0
8.4 0.9 0
8.7 0.9 0
9 0.9 0
9.3 0.9 0
9.6 0.9 0
9.9 0.9 0
10.2 0.9 0
10.5 0.9 0
10.8 0.9 0
11.1 0.9 0
11.4 0.9 0
11.7 0.9 0
12 0.9 0
12.3 0.9 0
12.6 0.9 0
12.9 0.9 0
13.2 0.9 0
13.5 0.9 0
13.8 0.9 0
14.1 0.9 0
14.4 0.9 0
14.7 0.9 0
15 0.9 0
15.3 0.9 0
15.6 0.9 0
15.9 0.9 0
16.2 0.9 0
16.5 0.9 0
16.8 0.9 0
17.1 0.9 0
17.4 0.9 0
17.7 0.9 0
18 0.9 0
18.3 0.9 0
18.6 0.9 0
18.9 0.9 0
19.2 0.9 0
19.5 0.9 0
19.8 0.9 0
20.1 0.9 0
20.4 0.9 0
20.7 0.9 0
21 0.9 0
21.3 0.9 0
21.6 0.9 0
21.9 0.9 0
22.2 0.9 0
22.5 0.9 0
22.8 0.9 0
23.1 0.9 0
23.4 0.9 0
23.7 0.9 0
24 0.9 0
24.3 0.9 0
24.6 0.9 0
24.9 0.9 0
25.2 0.9 0
25.5 0.9 0
25.8 0.9 0
26.1 0.9 0
26.4 0.9 0
26.7 0.9 0
27 0.9 0
27.3 0.9 0
27.6 0.9 0
27.9 0.9 0
28.2 0.9 0
28.5 0.9 0
28.8 0.9 0
29.1 0.9 0
29.4 0.9 0
29.7 0.9 0
30 0.9 0
30.3 0.9 0
0 1 0
0.3 1 0
0.6 1 0
0.9 1 0
1.2 1 0
1.5 1 0
1.8 1 0
2.1 1 0
2.4 1 0
2.7 1 0
3 1 0
3.3 1 0
3.6 1 0
3.9 1 0
4.2 1 0
4.5 1 0
4.8 1 0
5.1 1 0
5.4 1 0
5.7 1 0
6 1 0
6.3 1 0
6.6 1 0
6.9 1 0
7.2 1 0
7.5 1 0
7.8 1 0
8.1 1 0
8.4 1 0
8.7 1 0
9 1 0
9.3 1 0
9.6 1 0
9.9 1 0
10.2 1 0
10.5 1 0
10.8 1 0
11.1 1 0
11.4 1 0
11.7 1 0
12 1 0
12.3 1 0
12.6 1 0
12.9 1 0
13.2 1 0
13.5 1 0
13.8 1 0
14.1 1 0
14.4 1 0
14.7 1 0
15 1 0
15.3 1 0
15.6 1 0
15.9 1 0
16.2 1 0
16.5 1 0
16.8 1 0
17.1 1 0
17.4 1 0
17.7 1 0
18 1 0
18.3 1 0
18.6 1 0
18.9 1 0
19.2 1 0
19.5 1 0
19.8 1 0
20.1 1 0
20.4 1 0
20.7 1 0
21 1 0
21.3 1 0
21.6 1 0
21.9 1 0
22.2 1 0
22.5 1 0
22.8 1 0
23.1 1 0
23.4 1 0
23.7 1 0
24 1 0
24.3 1 0
24.6 1 0
24.9 1 0
25.2 1 0
25.5 1 0
25.8 1 0
26.1 1 0
26.4 1 0
26.7 1 0
27 1 0
27.3 1 0
27.6 1 0
27.9 1 0
28.2 1 0
28.5 1 0
28.8 1 0
29.1 1 0
29.4 1 0
29.7 1 0
30 1 0
30.3 1 0
0 1.1 0
0.3 1.1 0
0.6 1.1 0
0.9 1.1 0
1.2 1.1 0
1.5 1.1 0
1.8 1.1 0
2.1 1.1 0
2.4 1.1 0
2.7 1.1 0
3 1.1 0
3.3 1.1 0
3.6 1.1 0
3.9 1.1 0
4.2 1.1 0
4.5 1.1 0
4.8 1.1 0
5.1 1.1 0
5.4 1.1 0
5.7 1.1 0
6 1.1 0
6.3 1.1 0
6.6 1.1 0
6.9 1.1 0
7.2 1.1 0
7.5 1.1 0
7.8 1.1 0
8.1 1.1 0
8.4 1.1 0
8.7 1.1 0
9 1.1 0
9.3 1.1 0
9.6 1.1 0
9.9 1.1 0
10.2 1.1 0
10.5 1.1 0
10.8 1.1 0
11.1 1.1 0
11.4 1.1 0
11.7 1.1 0
12 1.1 0
12.3 1.1 0
12.6 1.1 0
12.9 1.1 0
13.2 1.1 0
13.5 1.1 0
13.8 1.1 0
14.1 1.1 0
14.4 1.1 0
14.7 1.1 0
15 1.1 0
15.3 1.1 0
15.6 1.1 0
15.9 1.1 0
16.2 1.1 0
16.5 1.1 0
16.8 1.1 0
17.1 1.1 0
17.4 1.1 0
17.7 1.1 0
18 1.1 0
18.3 1.1 0
18.6 1.1 0
18.9 1.1 0
19.2 1.1 0
19.5 1.1 0
19.8 1.1 0
20.1 1.1 0
20.4 1.1 0
20.7 1.1 0
21 1.1 0
21.3 1.1 0
21.6 1.1 0
21.9 1.1 0
22.2 1.1 0
22.5 1.1 0
22.8 1.1 0
23.1 1.1 0
23.4 1.1 0
23.7 1.1 0
24 1.1 0
24.3 1.1 0
24.6 1.1 0
24.9 1.1 0
25.2 1.1 0
25.5 1.1 0
25.8 1.1 0
26.1 1.1 0
26.4 1.1 0
26.7 1.1 0
27 1.1 0
27.3 1.1 0
27.6 1.1 0
27.9 1.1 0
28.2 1.1 0
28.5 1.1 0
28.8 1.1 0
29.1 1.1 0
29.4 1.1 0
29.7 1.1 0
30 1.1 0
30.3 1.1 0
0 1.2 0
0.3 1.2 0
0.6 1.2 0
0.9 1.2 0
1.2 1.2 0
1.5 1.2 0
1.8 1.2 0
2.1 1.2 0
2.4 1.2 0
2.7 1.2 0
3 1.2 0
3.3 1.2 0
3.6 1.2 0
3.9 1.2 0
4.2 1.2 0
4.5 1.2 0
4.8 1.2 0
5.1 1.2 0
5.4 1.2 0
5.7 1.2 0
6 1.2 0
6.3 1.2 0
6.6 1.2 0
6.9 1.2 0
7.2 1.2 0
7.5 1.2 0
7.8 1.2 0
8.1 1.2 0
8.4 1.2 0
8.7 1.2 0
9 1.2 0
9.3 1.2 0
9.6 1.2 0
9.9 1.2 0
10.2 1.2 0
10.5 1.2 0
10.8 1.2 0
11.1 1.2 0
11.4 1.2 0
11.7 1.2 0
12 1.2 0
12.3 1.2 0
12.6 1.2 0
12.9 1.2 0
13.2 1.2 0
13.5 1.2 0
13.8 1.2 0
14.1 1.2 0
14.4 1.2 0
14.7 1.2 0
15 1.2 0
15.3 1.2 0
15.6 1.2 0
15.9 1.2 0
16.2 1.2 0
16.5 1.2 0
16.8 1.2 0
17.1 1.2 0
17.4 1.2 0
17.7 1.2 0
18 1.2 0
18.3 1.2 0
18.6 1.2 0
18.9 1.2 0
19.2 1.2 0
19.5 1.2 0
19.8 1.2 0
20.1 1.2 0
20.4 1.2 0
20.7 1.2 0
21 1.2 0
21.3 1.2 0
21.6 1.2 0
21.9 1.2 0
22.2 1.2 0
22.5 1.2 0
22.8 1.2 0
23.1 1.2 0
23.4 1.2 0
23.7 1.2 0
24 1.2 0
24.3 1.2 0
24.6 1.2 0
24.9 1.2 0
25.2 1.2 0
25.5 1.2 0
25.8 1.2 0
26.1 1.2 0
26.4 1.2 0
26.7 1.2 0
27 1.2 0
27.3 1.2 0
27.6 1.2 0
27.9 1.2 0
28.2 1.2 0
28.5 1.2 0
28.8 1.2 0
29.1 1.2 0
29.4 1.2 0
29.7 1.2 0
30 1.2 0
30.3 1.2 0

POINT_DATA 1326

SCALARS p double
LOOKUP_TABLE default
1.16417
1.16417
1.09932
1.05509
1.01526
0.978689
0.945636
0.916108
0.889753
0.866043
0.844441
0.824478
0.805785
0.788086
0.771179
0.754919
0.739201
0.723945
0.709093
0.694598
0.680423
0.666538
0.652918
0.639539
0.626383
0.613433
0.600673
0.58809
0.575671
0.563406
0.551284
0.539297
0.527437
0.515699
0.504078
0.492571
0.481176
0.469891
0.458715
0.447645
0.43668
0.425816
0.415049
0.404372
0.393779
0.383262
0.372812
0.362422
0.352083
0.341787
0.331527
0.321296
0.311088
0.300898
0.290722
0.280557
0.270399
0.260248
0.250101
0.239957
0.229815
0.219674
0.209535
0.199396
0.189257
0.179119
0.168982
0.158844
0.148706
0.138569
0.128431
0.118294
0.108157
0.0980191
0.0878816
0.0777442
0.0676068
0.0574694
0.0473319
0.0371945
0.0270571
0.0169197
0.00678227
-0.00335514
-0.0134925
-0.02363
-0.0337674
-0.0439048
-0.0540422
-0.0641796
-0.074317
-0.0844544
-0.0945918
-0.104729
-0.114867
-0.125004
-0.135141
-0.145279
-0.155416
-0.165554
-0.175682
0.175682
1.16417
1.16417
1.09932
1.05509
1.01526
0.978689
0.945636
0.916108
0.889753
0.866043
0.844441
0.824478
0.805785
0.788086
0.771179
0.754919
0.739201
0.723945
0.709093
0.694598
0.680423
0.666538
0.652918
0.639539
0.626383
0.613433
0.600673
0.58809
0.575671
0.563406
0.551284
0.539297
0.527437
0.515699
0.504078
0.492571
0.481176
0.469891
0.458715
0.447645
0.43668
0.425816
0.415049
0.404372
0.393779
0.383262
0.372812
0.362422
0.352083
0.341787
0.331527
0.321296
0.311088
0.300898
0.290722
0.280557
0.270399
0.260248
0.250101
0.239957
0.229815
0.219674
0.209535
0.199396
0.189257
0.179119
0.168982
0.158844
0.148706
0.138569
0.128431
0.118294
0.108157
0.0980191
0.0878816
0.0777442
0.0676068
0.0574694
0.0473319
0.0371945
0.0270571
0.0169197
0.00678227
-0.00335514
-0.0134925
-0.02363
-0.0337674
-0.0439048
-0.0540422
-0.0641796
-0.074317
-0.0844544
-0.0945918
-0.104729
-0.114867
-0.125004
-0.135141
-0.145279
-0.155416
-0.165554
-0.175682
0.175682
1.14322
1.14322
1.09733
1.05532
1.01597
0.979485
0.946379
0.91674
0.89026
0.866439
0.844745
0.824712
0.805967
0.78823
0.771296
0.755017
0.739283
0.724016
0.709155
0.694653
0.680472
0.666583
0.652958
0.639576
0.626416
0.613463
0.600701
0.588116
0.575695
0.563428
0.551305
0.539316
0.527454
0.515715
0.504093
0.492584
0.481188
0.469901
0.458723
0.447652
0.436686
0.425821
0.415052
0.404374
0.39378
0.383262
0.372812
0.362422
0.352083
0.341787
0.331527
0.321296
0.311087
0.300897
0.290722
0.280556
0.270399
0.260248
0.250101
0.239957
0.229815
0.219674
0.209535
0.199396
0.189257
0.179119
0.168982
0.158844
0.148706
0.138569
0.128431
0.118294
0.108157
0.0980191
0.0878816
0.0777442
0.0676068
0.0574694
0.0473319
0.0371945
0.0270571
0.0169197
0.00678227
-0.00335514
-0.0134926
-0.02363
-0.0337674
-0.0439048
-0.0540422
-0.0641796
-0.074317
-0.0844544
-0.0945918
-0.104729
-0.114867
-0.125004
-0.135141
-0.145279
-0.155416
-0.165555
-0.175682
0.175682
1.12825
1.12825
1.09445
1.05555
1.01708
0.980809
0.947641
0.917818
0.891121
0.867098
0.845237
0.825076
0.806239
0.788435
0.771455
0.755142
0.739384
0.7241
0.709226
0.694714
0.680526
0.666629
0.652999
0.639613
0.62645
0.613493
0.600728
0.588141
0.575718
0.563449
0.551323
0.539333
0.52747
0.515729
0.504106
0.492596
0.481198
0.46991
0.458731
0.447659
0.436691
0.425825
0.415055
0.404376
0.393782
0.383263
0.372813
0.362423
0.352083
0.341787
0.331527
0.321295
0.311087
0.300897
0.290721
0.280556
0.270399
0.260248
0.250101
0.239956
0.229814
0.219674
0.209535
0.199396
0.189257
0.179119
0.168982
0.158844
0.148706
0.138569
0.128431
0.118294
0.108157
0.0980191
0.0878816
0.0777442
0.0676068
0.0574694
0.0473319
0.0371945
0.0270571
0.0169197
0.00678227
-0.00335514
-0.0134925
-0.02363
-0.0337674
-0.0439048
-0.0540422
-0.0641796
-0.074317
-0.0844544
-0.0945918
-0.104729
-0.114867
-0.125004
-0.135141
-0.145278
-0.155415
-0.165552
-0.175679
0.175679
1.11867
1.11867
1.09197
1.05565
1.01803
0.982004
0.948817
0.918854
0.891974
0.86777
0.845755
0.825471
0.806541
0.78867
0.77164
0.755291
0.739508
0.724203
0.709314
0.69479
0.680592
0.666688
0.653051
0.639659
0.626491
0.613531
0.600762
0.588171
0.575746
0.563474
0.551346
0.539354
0.52749
0.515747
0.504122
0.492612
0.481213
0.469924
0.458744
0.44767
0.436702
0.425834
0.415064
0.404384
0.393788
0.383269
0.372817
0.362426
0.352086
0.341789
0.331528
0.321297
0.311088
0.300898
0.290722
0.280557
0.270399
0.260248
0.250101
0.239957
0.229815
0.219674
0.209535
0.199396
0.189257
0.179119
0.168982
0.158844
0.148706
0.138569
0.128431
0.118294
0.108157
0.0980191
0.0878816
0.0777442
0.0676068
0.0574694
0.0473319
0.0371945
0.0270571
0.0169197
0.00678227
-0.00335514
-0.0134925
-0.02363
-0.0337674
-0.0439048
-0.0540422
-0.0641796
-0.074317
-0.0844544
-0.0945918
-0.104729
-0.114867
-0.125004
-0.135141
-0.145278
-0.155414
-0.165545
-0.175676
0.175676
1.11336
1.11336
1.09034
1.05567
1.01862
0.98277
0.949586
0.919544
0.892552
0.868234
0.846119
0.825755
0.806763
0.788847
0.771783
0.755409
0.739607
0.724288
0.709387
0.694854
0.680649
0.666739
0.653096
0.6397
0.626528
0.613564
0.600792
0.588199
0.575771
0.563497
0.551368
0.539374
0.527508
0.515765
0.504139
0.492627
0.481228
0.469938
0.458757
0.447683
0.436714
0.425846
0.415074
0.404393
0.393796
0.383276
0.372824
0.362431
0.35209
0.341793
0.331531
0.321299
0.31109
0.300899
0.290723
0.280557
0.2704
0.260248
0.250101
0.239957
0.229815
0.219674
0.209535
0.199396
0.189257
0.179119
0.168982
0.158844
0.148706
0.138569
0.128431
0.118294
0.108157
0.0980191
0.0878816
0.0777442
0.0676068
0.0574694
0.0473319
0.0371945
0.0270571
0.0169197
0.00678227
-0.00335514
-0.0134925
-0.02363
-0.0337674
-0.0439048
-0.0540422
-0.0641796
-0.074317
-0.0844544
-0.0945918
-0.104729
-0.114867
-0.125004
-0.135141
-0.145278
-0.155412
-0.165537
-0.175673
0.175673
1.11166
1.11166
1.08979
1.05569
1.01884
0.983044
0.94986
0.919789
0.892759
0.868401
0.846252
0.82586
0.806846
0.788913
0.771837
0.755455
0.739645
0.724321
0.709417
0.69488
0.680672
0.666759
0.653115
0.639717
0.626544
0.613578
0.600805
0.588211
0.575782
0.563507
0.551377
0.539383
0.527516
0.515772
0.504146
0.492634
0.481234
0.469944
0.458763
0.447689
0.436719
0.425851
0.415079
0.404397
0.3938
0.383279
0.372827
0.362434
0.352092
0.341794
0.331532
0.3213
0.311091
0.3009
0.290723
0.280558
0.2704
0.260248
0.250101
0.239957
0.229815
0.219674
0.209535
0.199396
0.189258
0.179119
0.168982
0.158844
0.148706
0.138569
0.128431
0.118294
0.108157
0.0980191
0.0878816
0.0777442
0.0676068
0.0574694
0.0473319
0.0371945
0.0270571
0.0169197
0.00678228
-0.00335514
-0.0134925
-0.02363
-0.0337674
-0.0439048
-0.0540422
-0.0641796
-0.074317
-0.0844544
-0.0945918
-0.104729
-0.114867
-0.125004
-0.135141
-0.145278
-0.155412
-0.165534
-0.175671
0.175671
1.11336
1.11336
1.09034
1.05567
1.01862
0.98277
0.949586
0.919544
0.892552
0.868234
0.846119
0.825755
0.806763
0.788847
0.771783
0.755409
0.739607
0.724288
0.709387
0.694854
0.680649
0.666739
0.653096
0.6397
0.626528
0.613564
0.600792
0.588199
0.575771
0.563497
0.551368
0.539374
0.527508
0.515765
0.504139
0.492627
0.481228
0.469938
0.458757
0.447683
0.436714
0.425846
0.415074
0.404393
0.393796
0.383276
0.372824
0.362431
0.35209
0.341793
0.331531
0.321299
0.31109
0.300899
0.290723
0.280557
0.2704
0.260248
0.250101
0.239957
0.229815
0.219674
0.209535
0.199396
0.189257
0.179119
0.168982
0.158844
0.148706
0.138569
0.128431
0.118294
0.108157
0.0980191
0.0878816
0.0777442
0.0676068
0.0574694
0.0473319
0.0371945
0.0270571
0.0169197
0.00678228
-0.00335514
-0.0134925
-0.02363
-0.0337674
-0.0439048
-0.0540422
-0.0641796
-0.074317
-0.0844544
-0.0945918
-0.104729
-0.114867
-0.125004
-0.135141
-0.145278
-0.155412
-0.165537
-0.175673
0.175673
1.11867
1.11867
1.09197
1.05565
1.01803
0.982004
0.948817
0.918854
0.891974
0.86777
0.845755
0.825471
0.806541
0.78867
0.77164
0.755291
0.739508
0.724203
0.709314
0.69479
0.680592
0.666688
0.653051
0.639659
0.626491
0.613531
0.600762
0.588171
0.575746
0.563474
0.551346
0.539354
0.52749
0.515747
0.504122
0.492612
0.481213
0.469924
0.458744
0.44767
0.436702
0.425834
0.415064
0.404384
0.393788
0.383269
0.372817
0.362426
0.352086
0.341789
0.331528
0.321297
0.311088
0.300898
0.290722
0.280557
0.270399
0.260248
0.250101
0.239957
0.229815
0.219674
0.209535
0.199396
0.189257
0.179119
0.168982
0.158844
0.148706
0.138569
0.128431
0.118294
0.108157
0.0980191
0.0878816
0.0777442
0.0676068
0.0574694
0.0473319
0.0371945
0.0270571
0.0169197
0.00678228
-0.00335514
-0.0134925
-0.02363
-0.0337674
-0.0439048
-0.0540422
-0.0641796
-0.074317
-0.0844544
-0.0945918
-0.104729
-0.114867
-0.125004
-0.135141
-0.145278
-0.155414
-0.165545
-0.175676
0.175676
1.12825
1.12825
1.09445
1.05555
1.01708
0.980809
0.947641
0.917818
0.891121
0.867098
0.845237
0.825076
0.806239
0.788435
0.771455
0.755142
0.739384
0.7241
0.709226
0.694714
0.680526
0.666629
0.652999
0.639613
0.62645
0.613493
0.600728
0.588141
0.575718
0.563449
0.551323
0.539333
0.52747
0.515729
0.504106
0.492596
0.481198
0.46991
0.458731
0.447659
0.436691
0.425825
0.415055
0.404376
0.393782
0.383263
0.372813
0.362423
0.352083
0.341787
0.331527
0.321295
0.311087
0.300897
0.290721
0.280556
0.270399
0.260248
0.250101
0.239956
0.229814
0.219674
0.209535
0.199396
0.189257
0.179119
0.168982
0.158844
0.148706
0.138569
0.128431
0.118294
0.108157
0.0980191
0.0878816
0.0777442
0.0676068
0.0574694
0.0473319
0.0371945
0.0270571
0.0169197
0.00678228
-0.00335514
-0.0134925
-0.02363
-0.0337674
-0.0439048
-0.0540422
-0.0641796
-0.074317
-0.0844544
-0.0945918
-0.104729
-0.114867
-0.125004
-0.135141
-0.145278
-0.155415
-0.165552
-0.175679
0.175679
1.14322
1.14322
1.09733
1.05532
1.01597
0.979485
0.946379
0.91674
0.89026
0.866439
0.844745
0.824712
0.805967
0.78823
0.771296
0.755017
0.739283
0.724016
0.709155
0.694653
0.680472
0.666583
0.652958
0.639576
0.626416
0.613463
0.600701
0.588116
0.575695
0.563428
0.551305
0.539316
0.527454
0.515715
0.504093
0.492584
0.481188
0.469901
0.458723
0.447652
0.436686
0.425821
0.415052
0.404374
0.39378
0.383262
0.372812
0.362422
0.352083
0.341787
0.331527
0.321296
0.311087
0.300898
0.290722
0.280556
0.270399
0.260248
0.250101
0.239957
0.229815
0.219674
0.209535
0.199396
0.189257
0.179119
0.168982
0.158844
0.148706
0.138569
0.128431
0.118294
0.108157
0.0980191
0.0878816
0.0777442
0.0676068
0.0574694
0.0473319
0.0371945
0.0270571
0.0169197
0.00678228
-0.00335514
-0.0134925
-0.02363
-0.0337674
-0.0439048
-0.0540422
-0.0641796
-0.074317
-0.0844544
-0.0945918
-0.104729
-0.114867
-0.125004
-0.135141
-0.145279
-0.155416
-0.165555
-0.175682
0.175682
1.16417
1.16417
1.09932
1.05509
1.01526
0.978689
0.945636
0.916108
0.889753
0.866043
0.844441
0.824478
0.805785
0.788086
0.771179
0.754919
0.739201
0.723945
0.709093
0.694598
0.680423
0.666538
0.652918
0.639539
0.626383
0.613433
0.600673
0.58809
0.575671
0.563406
0.551284
0.539297
0.527437
0.515699
0.504078
0.492571
0.481176
0.469891
0.458715
0.447645
0.43668
0.425816
0.415049
0.404372
0.393779
0.383262
0.372812
0.362422
0.352083
0.341787
0.331527
0.321296
0.311088
0.300898
0.290722
0.280557
0.270399
0.260248
0.250101
0.239957
0.229815
0.219674
0.209535
0.199396
0.189257
0.179119
0.168982
0.158844
0.148706
0.138569
0.128431
0.118294
0.108157
0.0980191
0.0878816
0.0777442
0.0676068
0.0574694
0.0473319
0.0371945
0.0270571
0.0169197
0.00678228
-0.00335514
-0.0134925
-0.02363
-0.0337674
-0.0439048
-0.0540422
-0.0641796
-0.074317
-0.0844544
-0.0945918
-0.104729
-0.114867
-0.125004
-0.135141
-0.145279
-0.155416
-0.165554
-0.175682
0.175682
1.16417
1.16417
1.09932
1.05509
1.01526
0.978689
0.945636
0.916108
0.889753
0.866043
0.844441
0.824478
0.805785
0.788086
0.771179
0.754919
0.739201
0.723945
0.709093
0.694598
0.680423
0.666538
0.652918
0.639539
0.626383
0.613433
0.600673
0.58809
0.575671
0.563406
0.551284
0.539297
0.527437
0.515699
0.504078
0.492571
0.481176
0.469891
0.458715
0.447645
0.43668
0.425816
0.415049
0.404372
0.393779
0.383262
0.372812
0.362422
0.352083
0.341787
0.331527
0.321296
0.311088
0.300898
0.290722
0.280557
0.270399
0.260248
0.250101
0.239957
0.229815
0.219674
0.209535
0.199396
0.189257
0.179119
0.168982
0.158844
0.148706
0.138569
0.128431
0.118294
0.108157
0.0980191
0.0878816
0.0777442
0.0676068
0.0574694
0.0473319
0.0371945
0.0270571
0.0169197
0.00678228
-0.00335514
-0.0134925
-0.02363
-0.0337674
-0.0439048
-0.0540422
-0.0641796
-0.074317
-0.0844544
-0.0945918
-0.104729
-0.114867
-0.125004
-0.135141
-0.145279
-0.155416
-0.165554
-0.175682
0.175682
