# vtk DataFile Version 2.0
FlowField
ASCII
DATASET STRUCTURED_GRID
DIMENSIONS 102 1 12 
POINTS 1224 double
0 0 0
0.4 0 0
0.8 0 0
1.2 0 0
1.6 0 0
2 0 0
2.4 0 0
2.8 0 0
3.2 0 0
3.6 0 0
4 0 0
4.4 0 0
4.8 0 0
5.2 0 0
5.6 0 0
6 0 0
6.4 0 0
6.8 0 0
7.2 0 0
7.6 0 0
8 0 0
8.4 0 0
8.8 0 0
9.2 0 0
9.6 0 0
10 0 0
10.4 0 0
10.8 0 0
11.2 0 0
11.6 0 0
12 0 0
12.4 0 0
12.8 0 0
13.2 0 0
13.6 0 0
14 0 0
14.4 0 0
14.8 0 0
15.2 0 0
15.6 0 0
16 0 0
16.4 0 0
16.8 0 0
17.2 0 0
17.6 0 0
18 0 0
18.4 0 0
18.8 0 0
19.2 0 0
19.6 0 0
20 0 0
20.4 0 0
20.8 0 0
21.2 0 0
21.6 0 0
22 0 0
22.4 0 0
22.8 0 0
23.2 0 0
23.6 0 0
24 0 0
24.4 0 0
24.8 0 0
25.2 0 0
25.6 0 0
26 0 0
26.4 0 0
26.8 0 0
27.2 0 0
27.6 0 0
28 0 0
28.4 0 0
28.8 0 0
29.2 0 0
29.6 0 0
30 0 0
30.4 0 0
30.8 0 0
31.2 0 0
31.6 0 0
32 0 0
32.4 0 0
32.8 0 0
33.2 0 0
33.6 0 0
34 0 0
34.4 0 0
34.8 0 0
35.2 0 0
35.6 0 0
36 0 0
36.4 0 0
36.8 0 0
37.2 0 0
37.6 0 0
38 0 0
38.4 0 0
38.8 0 0
39.2 0 0
39.6 0 0
40 0 0
40.4 0 0
0 0.1 0
0.4 0.1 0
0.8 0.1 0
1.2 0.1 0
1.6 0.1 0
2 0.1 0
2.4 0.1 0
2.8 0.1 0
3.2 0.1 0
3.6 0.1 0
4 0.1 0
4.4 0.1 0
4.8 0.1 0
5.2 0.1 0
5.6 0.1 0
6 0.1 0
6.4 0.1 0
6.8 0.1 0
7.2 0.1 0
7.6 0.1 0
8 0.1 0
8.4 0.1 0
8.8 0.1 0
9.2 0.1 0
9.6 0.1 0
10 0.1 0
10.4 0.1 0
10.8 0.1 0
11.2 0.1 0
11.6 0.1 0
12 0.1 0
12.4 0.1 0
12.8 0.1 0
13.2 0.1 0
13.6 0.1 0
14 0.1 0
14.4 0.1 0
14.8 0.1 0
15.2 0.1 0
15.6 0.1 0
16 0.1 0
16.4 0.1 0
16.8 0.1 0
17.2 0.1 0
17.6 0.1 0
18 0.1 0
18.4 0.1 0
18.8 0.1 0
19.2 0.1 0
19.6 0.1 0
20 0.1 0
20.4 0.1 0
20.8 0.1 0
21.2 0.1 0
21.6 0.1 0
22 0.1 0
22.4 0.1 0
22.8 0.1 0
23.2 0.1 0
23.6 0.1 0
24 0.1 0
24.4 0.1 0
24.8 0.1 0
25.2 0.1 0
25.6 0.1 0
26 0.1 0
26.4 0.1 0
26.8 0.1 0
27.2 0.1 0
27.6 0.1 0
28 0.1 0
28.4 0.1 0
28.8 0.1 0
29.2 0.1 0
29.6 0.1 0
30 0.1 0
30.4 0.1 0
30.8 0.1 0
31.2 0.1 0
31.6 0.1 0
32 0.1 0
32.4 0.1 0
32.8 0.1 0
33.2 0.1 0
33.6 0.1 0
34 0.1 0
34.4 0.1 0
34.8 0.1 0
35.2 0.1 0
35.6 0.1 0
36 0.1 0
36.4 0.1 0
36.8 0.1 0
37.2 0.1 0
37.6 0.1 0
38 0.1 0
38.4 0.1 0
38.8 0.1 0
39.2 0.1 0
39.6 0.1 0
40 0.1 0
40.4 0.1 0
0 0.2 0
0.4 0.2 0
0.8 0.2 0
1.2 0.2 0
1.6 0.2 0
2 0.2 0
2.4 0.2 0
2.8 0.2 0
3.2 0.2 0
3.6 0.2 0
4 0.2 0
4.4 0.2 0
4.8 0.2 0
5.2 0.2 0
5.6 0.2 0
6 0.2 0
6.4 0.2 0
6.8 0.2 0
7.2 0.2 0
7.6 0.2 0
8 0.2 0
8.4 0.2 0
8.8 0.2 0
9.2 0.2 0
9.6 0.2 0
10 0.2 0
10.4 0.2 0
10.8 0.2 0
11.2 0.2 0
11.6 0.2 0
12 0.2 0
12.4 0.2 0
12.8 0.2 0
13.2 0.2 0
13.6 0.2 0
14 0.2 0
14.4 0.2 0
14.8 0.2 0
15.2 0.2 0
15.6 0.2 0
16 0.2 0
16.4 0.2 0
16.8 0.2 0
17.2 0.2 0
17.6 0.2 0
18 0.2 0
18.4 0.2 0
18.8 0.2 0
19.2 0.2 0
19.6 0.2 0
20 0.2 0
20.4 0.2 0
20.8 0.2 0
21.2 0.2 0
21.6 0.2 0
22 0.2 0
22.4 0.2 0
22.8 0.2 0
23.2 0.2 0
23.6 0.2 0
24 0.2 0
24.4 0.2 0
24.8 0.2 0
25.2 0.2 0
25.6 0.2 0
26 0.2 0
26.4 0.2 0
26.8 0.2 0
27.2 0.2 0
27.6 0.2 0
28 0.2 0
28.4 0.2 0
28.8 0.2 0
29.2 0.2 0
29.6 0.2 0
30 0.2 0
30.4 0.2 0
30.8 0.2 0
31.2 0.2 0
31.6 0.2 0
32 0.2 0
32.4 0.2 0
32.8 0.2 0
33.2 0.2 0
33.6 0.2 0
34 0.2 0
34.4 0.2 0
34.8 0.2 0
35.2 0.2 0
35.6 0.2 0
36 0.2 0
36.4 0.2 0
36.8 0.2 0
37.2 0.2 0
37.6 0.2 0
38 0.2 0
38.4 0.2 0
38.8 0.2 0
39.2 0.2 0
39.6 0.2 0
40 0.2 0
40.4 0.2 0
0 0.3 0
0.4 0.3 0
0.8 0.3 0
1.2 0.3 0
1.6 0.3 0
2 0.3 0
2.4 0.3 0
2.8 0.3 0
3.2 0.3 0
3.6 0.3 0
4 0.3 0
4.4 0.3 0
4.8 0.3 0
5.2 0.3 0
5.6 0.3 0
6 0.3 0
6.4 0.3 0
6.8 0.3 0
7.2 0.3 0
7.6 0.3 0
8 0.3 0
8.4 0.3 0
8.8 0.3 0
9.2 0.3 0
9.6 0.3 0
10 0.3 0
10.4 0.3 0
10.8 0.3 0
11.2 0.3 0
11.6 0.3 0
12 0.3 0
12.4 0.3 0
12.8 0.3 0
13.2 0.3 0
13.6 0.3 0
14 0.3 0
14.4 0.3 0
14.8 0.3 0
15.2 0.3 0
15.6 0.3 0
16 0.3 0
16.4 0.3 0
16.8 0.3 0
17.2 0.3 0
17.6 0.3 0
18 0.3 0
18.4 0.3 0
18.8 0.3 0
19.2 0.3 0
19.6 0.3 0
20 0.3 0
20.4 0.3 0
20.8 0.3 0
21.2 0.3 0
21.6 0.3 0
22 0.3 0
22.4 0.3 0
22.8 0.3 0
23.2 0.3 0
23.6 0.3 0
24 0.3 0
24.4 0.3 0
24.8 0.3 0
25.2 0.3 0
25.6 0.3 0
26 0.3 0
26.4 0.3 0
26.8 0.3 0
27.2 0.3 0
27.6 0.3 0
28 0.3 0
28.4 0.3 0
28.8 0.3 0
29.2 0.3 0
29.6 0.3 0
30 0.3 0
30.4 0.3 0
30.8 0.3 0
31.2 0.3 0
31.6 0.3 0
32 0.3 0
32.4 0.3 0
32.8 0.3 0
33.2 0.3 0
33.6 0.3 0
34 0.3 0
34.4 0.3 0
34.8 0.3 0
35.2 0.3 0
35.6 0.3 0
36 0.3 0
36.4 0.3 0
36.8 0.3 0
37.2 0.3 0
37.6 0.3 0
38 0.3 0
38.4 0.3 0
38.8 0.3 0
39.2 0.3 0
39.6 0.3 0
40 0.3 0
40.4 0.3 0
0 0.4 0
0.4 0.4 0
0.8 0.4 0
1.2 0.4 0
1.6 0.4 0
2 0.4 0
2.4 0.4 0
2.8 0.4 0
3.2 0.4 0
3.6 0.4 0
4 0.4 0
4.4 0.4 0
4.8 0.4 0
5.2 0.4 0
5.6 0.4 0
6 0.4 0
6.4 0.4 0
6.8 0.4 0
7.2 0.4 0
7.6 0.4 0
8 0.4 0
8.4 0.4 0
8.8 0.4 0
9.2 0.4 0
9.6 0.4 0
10 0.4 0
10.4 0.4 0
10.8 0.4 0
11.2 0.4 0
11.6 0.4 0
12 0.4 0
12.4 0.4 0
12.8 0.4 0
13.2 0.4 0
13.6 0.4 0
14 0.4 0
14.4 0.4 0
14.8 0.4 0
15.2 0.4 0
15.6 0.4 0
16 0.4 0
16.4 0.4 0
16.8 0.4 0
17.2 0.4 0
17.6 0.4 0
18 0.4 0
18.4 0.4 0
18.8 0.4 0
19.2 0.4 0
19.6 0.4 0
20 0.4 0
20.4 0.4 0
20.8 0.4 0
21.2 0.4 0
21.6 0.4 0
22 0.4 0
22.4 0.4 0
22.8 0.4 0
23.2 0.4 0
23.6 0.4 0
24 0.4 0
24.4 0.4 0
24.8 0.4 0
25.2 0.4 0
25.6 0.4 0
26 0.4 0
26.4 0.4 0
26.8 0.4 0
27.2 0.4 0
27.6 0.4 0
28 0.4 0
28.4 0.4 0
28.8 0.4 0
29.2 0.4 0
29.6 0.4 0
30 0.4 0
30.4 0.4 0
30.8 0.4 0
31.2 0.4 0
31.6 0.4 0
32 0.4 0
32.4 0.4 0
32.8 0.4 0
33.2 0.4 0
33.6 0.4 0
34 0.4 0
34.4 0.4 0
34.8 0.4 0
35.2 0.4 0
35.6 0.4 0
36 0.4 0
36.4 0.4 0
36.8 0.4 0
37.2 0.4 0
37.6 0.4 0
38 0.4 0
38.4 0.4 0
38.8 0.4 0
39.2 0.4 0
39.6 0.4 0
40 0.4 0
40.4 0.4 0
0 0.5 0
0.4 0.5 0
0.8 0.5 0
1.2 0.5 0
1.6 0.5 0
2 0.5 0
2.4 0.5 0
2.8 0.5 0
3.2 0.5 0
3.6 0.5 0
4 0.5 0
4.4 0.5 0
4.8 0.5 0
5.2 0.5 0
5.6 0.5 0
6 0.5 0
6.4 0.5 0
6.8 0.5 0
7.2 0.5 0
7.6 0.5 0
8 0.5 0
8.4 0.5 0
8.8 0.5 0
9.2 0.5 0
9.6 0.5 0
10 0.5 0
10.4 0.5 0
10.8 0.5 0
11.2 0.5 0
11.6 0.5 0
12 0.5 0
12.4 0.5 0
12.8 0.5 0
13.2 0.5 0
13.6 0.5 0
14 0.5 0
14.4 0.5 0
14.8 0.5 0
15.2 0.5 0
15.6 0.5 0
16 0.5 0
16.4 0.5 0
16.8 0.5 0
17.2 0.5 0
17.6 0.5 0
18 0.5 0
18.4 0.5 0
18.8 0.5 0
19.2 0.5 0
19.6 0.5 0
20 0.5 0
20.4 0.5 0
20.8 0.5 0
21.2 0.5 0
21.6 0.5 0
22 0.5 0
22.4 0.5 0
22.8 0.5 0
23.2 0.5 0
23.6 0.5 0
24 0.5 0
24.4 0.5 0
24.8 0.5 0
25.2 0.5 0
25.6 0.5 0
26 0.5 0
26.4 0.5 0
26.8 0.5 0
27.2 0.5 0
27.6 0.5 0
28 0.5 0
28.4 0.5 0
28.8 0.5 0
29.2 0.5 0
29.6 0.5 0
30 0.5 0
30.4 0.5 0
30.8 0.5 0
31.2 0.5 0
31.6 0.5 0
32 0.5 0
32.4 0.5 0
32.8 0.5 0
33.2 0.5 0
33.6 0.5 0
34 0.5 0
34.4 0.5 0
34.8 0.5 0
35.2 0.5 0
35.6 0.5 0
36 0.5 0
36.4 0.5 0
36.8 0.5 0
37.2 0.5 0
37.6 0.5 0
38 0.5 0
38.4 0.5 0
38.8 0.5 0
39.2 0.5 0
39.6 0.5 0
40 0.5 0
40.4 0.5 0
0 0.6 0
0.4 0.6 0
0.8 0.6 0
1.2 0.6 0
1.6 0.6 0
2 0.6 0
2.4 0.6 0
2.8 0.6 0
3.2 0.6 0
3.6 0.6 0
4 0.6 0
4.4 0.6 0
4.8 0.6 0
5.2 0.6 0
5.6 0.6 0
6 0.6 0
6.4 0.6 0
6.8 0.6 0
7.2 0.6 0
7.6 0.6 0
8 0.6 0
8.4 0.6 0
8.8 0.6 0
9.2 0.6 0
9.6 0.6 0
10 0.6 0
10.4 0.6 0
10.8 0.6 0
11.2 0.6 0
11.6 0.6 0
12 0.6 0
12.4 0.6 0
12.8 0.6 0
13.2 0.6 0
13.6 0.6 0
14 0.6 0
14.4 0.6 0
14.8 0.6 0
15.2 0.6 0
15.6 0.6 0
16 0.6 0
16.4 0.6 0
16.8 0.6 0
17.2 0.6 0
17.6 0.6 0
18 0.6 0
18.4 0.6 0
18.8 0.6 0
19.2 0.6 0
19.6 0.6 0
20 0.6 0
20.4 0.6 0
20.8 0.6 0
21.2 0.6 0
21.6 0.6 0
22 0.6 0
22.4 0.6 0
22.8 0.6 0
23.2 0.6 0
23.6 0.6 0
24 0.6 0
24.4 0.6 0
24.8 0.6 0
25.2 0.6 0
25.6 0.6 0
26 0.6 0
26.4 0.6 0
26.8 0.6 0
27.2 0.6 0
27.6 0.6 0
28 0.6 0
28.4 0.6 0
28.8 0.6 0
29.2 0.6 0
29.6 0.6 0
30 0.6 0
30.4 0.6 0
30.8 0.6 0
31.2 0.6 0
31.6 0.6 0
32 0.6 0
32.4 0.6 0
32.8 0.6 0
33.2 0.6 0
33.6 0.6 0
34 0.6 0
34.4 0.6 0
34.8 0.6 0
35.2 0.6 0
35.6 0.6 0
36 0.6 0
36.4 0.6 0
36.8 0.6 0
37.2 0.6 0
37.6 0.6 0
38 0.6 0
38.4 0.6 0
38.8 0.6 0
39.2 0.6 0
39.6 0.6 0
40 0.6 0
40.4 0.6 0
0 0.7 0
0.4 0.7 0
0.8 0.7 0
1.2 0.7 0
1.6 0.7 0
2 0.7 0
2.4 0.7 0
2.8 0.7 0
3.2 0.7 0
3.6 0.7 0
4 0.7 0
4.4 0.7 0
4.8 0.7 0
5.2 0.7 0
5.6 0.7 0
6 0.7 0
6.4 0.7 0
6.8 0.7 0
7.2 0.7 0
7.6 0.7 0
8 0.7 0
8.4 0.7 0
8.8 0.7 0
9.2 0.7 0
9.6 0.7 0
10 0.7 0
10.4 0.7 0
10.8 0.7 0
11.2 0.7 0
11.6 0.7 0
12 0.7 0
12.4 0.7 0
12.8 0.7 0
13.2 0.7 0
13.6 0.7 0
14 0.7 0
14.4 0.7 0
14.8 0.7 0
15.2 0.7 0
15.6 0.7 0
16 0.7 0
16.4 0.7 0
16.8 0.7 0
17.2 0.7 0
17.6 0.7 0
18 0.7 0
18.4 0.7 0
18.8 0.7 0
19.2 0.7 0
19.6 0.7 0
20 0.7 0
20.4 0.7 0
20.8 0.7 0
21.2 0.7 0
21.6 0.7 0
22 0.7 0
22.4 0.7 0
22.8 0.7 0
23.2 0.7 0
23.6 0.7 0
24 0.7 0
24.4 0.7 0
24.8 0.7 0
25.2 0.7 0
25.6 0.7 0
26 0.7 0
26.4 0.7 0
26.8 0.7 0
27.2 0.7 0
27.6 0.7 0
28 0.7 0
28.4 0.7 0
28.8 0.7 0
29.2 0.7 0
29.6 0.7 0
30 0.7 0
30.4 0.7 0
30.8 0.7 0
31.2 0.7 0
31.6 0.7 0
32 0.7 0
32.4 0.7 0
32.8 0.7 0
33.2 0.7 0
33.6 0.7 0
34 0.7 0
34.4 0.7 0
34.8 0.7 0
35.2 0.7 0
35.6 0.7 0
36 0.7 0
36.4 0.7 0
36.8 0.7 0
37.2 0.7 0
37.6 0.7 0
38 0.7 0
38.4 0.7 0
38.8 0.7 0
39.2 0.7 0
39.6 0.7 0
40 0.7 0
40.4 0.7 0
0 0.8 0
0.4 0.8 0
0.8 0.8 0
1.2 0.8 0
1.6 0.8 0
2 0.8 0
2.4 0.8 0
2.8 0.8 0
3.2 0.8 0
3.6 0.8 0
4 0.8 0
4.4 0.8 0
4.8 0.8 0
5.2 0.8 0
5.6 0.8 0
6 0.8 0
6.4 0.8 0
6.8 0.8 0
7.2 0.8 0
7.6 0.8 0
8 0.8 0
8.4 0.8 0
8.8 0.8 0
9.2 0.8 0
9.6 0.8 0
10 0.8 0
10.4 0.8 0
10.8 0.8 0
11.2 0.8 0
11.6 0.8 0
12 0.8 0
12.4 0.8 0
12.8 0.8 0
13.2 0.8 0
13.6 0.8 0
14 0.8 0
14.4 0.8 0
14.8 0.8 0
15.2 0.8 0
15.6 0.8 0
16 0.8 0
16.4 0.8 0
16.8 0.8 0
17.2 0.8 0
17.6 0.8 0
18 0.8 0
18.4 0.8 0
18.8 0.8 0
19.2 0.8 0
19.6 0.8 0
20 0.8 0
20.4 0.8 0
20.8 0.8 0
21.2 0.8 0
21.6 0.8 0
22 0.8 0
22.4 0.8 0
22.8 0.8 0
23.2 0.8 0
23.6 0.8 0
24 0.8 0
24.4 0.8 0
24.8 0.8 0
25.2 0.8 0
25.6 0.8 0
26 0.8 0
26.4 0.8 0
26.8 0.8 0
27.2 0.8 0
27.6 0.8 0
28 0.8 0
28.4 0.8 0
28.8 0.8 0
29.2 0.8 0
29.6 0.8 0
30 0.8 0
30.4 0.8 0
30.8 0.8 0
31.2 0.8 0
31.6 0.8 0
32 0.8 0
32.4 0.8 0
32.8 0.8 0
33.2 0.8 0
33.6 0.8 0
34 0.8 0
34.4 0.8 0
34.8 0.8 0
35.2 0.8 0
35.6 0.8 0
36 0.8 0
36.4 0.8 0
36.8 0.8 0
37.2 0.8 0
37.6 0.8 0
38 0.8 0
38.4 0.8 0
38.8 0.8 0
39.2 0.8 0
39.6 0.8 0
40 0.8 0
40.4 0.8 0
0 0.9 0
0.4 0.9 0
0.8 0.9 0
1.2 0.9 0
1.6 0.9 0
2 0.9 0
2.4 0.9 0
2.8 0.9 0
3.2 0.9 0
3.6 0.9 0
4 0.9 0
4.4 0.9 0
4.8 0.9 0
5.2 0.9 0
5.6 0.9 0
6 0.9 0
6.4 0.9 0
6.8 0.9 0
7.2 0.9 0
7.6 0.9 0
8 0.9 0
8.4 0.9 0
8.8 0.9 0
9.2 0.9 0
9.6 0.9 0
10 0.9 0
10.4 0.9 0
10.8 0.9 0
11.2 0.9 0
11.6 0.9 0
12 0.9 0
12.4 0.9 0
12.8 0.9 0
13.2 0.9 0
13.6 0.9 0
14 0.9 0
14.4 0.9 0
14.8 0.9 0
15.2 0.9 0
15.6 0.9 0
16 0.9 0
16.4 0.9 0
16.8 0.9 0
17.2 0.9 0
17.6 0.9 0
18 0.9 0
18.4 0.9 0
18.8 0.9 0
19.2 0.9 0
19.6 0.9 0
20 0.9 0
20.4 0.9 0
20.8 0.9 0
21.2 0.9 0
21.6 0.9 0
22 0.9 0
22.4 0.9 0
22.8 0.9 0
23.2 0.9 0
23.6 0.9 0
24 0.9 0
24.4 0.9 0
24.8 0.9 0
25.2 0.9 0
25.6 0.9 0
26 0.9 0
26.4 0.9 0
26.8 0.9 0
27.2 0.9 0
27.6 0.9 0
28 0.9 0
28.4 0.9 0
28.8 0.9 0
29.2 0.9 0
29.6 0.9 0
30 0.9 0
30.4 0.9 0
30.8 0.9 0
31.2 0.9 0
31.6 0.9 0
32 0.9 0
32.4 0.9 0
32.8 0.9 0
33.2 0.9 0
33.6 0.9 0
34 0.9 0
34.4 0.9 0
34.8 0.9 0
35.2 0.9 0
35.6 0.9 0
36 0.9 0
36.4 0.9 0
36.8 0.9 0
37.2 0.9 0
37.6 0.9 0
38 0.9 0
38.4 0.9 0
38.8 0.9 0
39.2 0.9 0
39.6 0.9 0
40 0.9 0
40.4 0.9 0
0 1 0
0.4 1 0
0.8 1 0
1.2 1 0
1.6 1 0
2 1 0
2.4 1 0
2.8 1 0
3.2 1 0
3.6 1 0
4 1 0
4.4 1 0
4.8 1 0
5.2 1 0
5.6 1 0
6 1 0
6.4 1 0
6.8 1 0
7.2 1 0
7.6 1 0
8 1 0
8.4 1 0
8.8 1 0
9.2 1 0
9.6 1 0
10 1 0
10.4 1 0
10.8 1 0
11.2 1 0
11.6 1 0
12 1 0
12.4 1 0
12.8 1 0
13.2 1 0
13.6 1 0
14 1 0
14.4 1 0
14.8 1 0
15.2 1 0
15.6 1 0
16 1 0
16.4 1 0
16.8 1 0
17.2 1 0
17.6 1 0
18 1 0
18.4 1 0
18.8 1 0
19.2 1 0
19.6 1 0
20 1 0
20.4 1 0
20.8 1 0
21.2 1 0
21.6 1 0
22 1 0
22.4 1 0
22.8 1 0
23.2 1 0
23.6 1 0
24 1 0
24.4 1 0
24.8 1 0
25.2 1 0
25.6 1 0
26 1 0
26.4 1 0
26.8 1 0
27.2 1 0
27.6 1 0
28 1 0
28.4 1 0
28.8 1 0
29.2 1 0
29.6 1 0
30 1 0
30.4 1 0
30.8 1 0
31.2 1 0
31.6 1 0
32 1 0
32.4 1 0
32.8 1 0
33.2 1 0
33.6 1 0
34 1 0
34.4 1 0
34.8 1 0
35.2 1 0
35.6 1 0
36 1 0
36.4 1 0
36.8 1 0
37.2 1 0
37.6 1 0
38 1 0
38.4 1 0
38.8 1 0
39.2 1 0
39.6 1 0
40 1 0
40.4 1 0
0 1.1 0
0.4 1.1 0
0.8 1.1 0
1.2 1.1 0
1.6 1.1 0
2 1.1 0
2.4 1.1 0
2.8 1.1 0
3.2 1.1 0
3.6 1.1 0
4 1.1 0
4.4 1.1 0
4.8 1.1 0
5.2 1.1 0
5.6 1.1 0
6 1.1 0
6.4 1.1 0
6.8 1.1 0
7.2 1.1 0
7.6 1.1 0
8 1.1 0
8.4 1.1 0
8.8 1.1 0
9.2 1.1 0
9.6 1.1 0
10 1.1 0
10.4 1.1 0
10.8 1.1 0
11.2 1.1 0
11.6 1.1 0
12 1.1 0
12.4 1.1 0
12.8 1.1 0
13.2 1.1 0
13.6 1.1 0
14 1.1 0
14.4 1.1 0
14.8 1.1 0
15.2 1.1 0
15.6 1.1 0
16 1.1 0
16.4 1.1 0
16.8 1.1 0
17.2 1.1 0
17.6 1.1 0
18 1.1 0
18.4 1.1 0
18.8 1.1 0
19.2 1.1 0
19.6 1.1 0
20 1.1 0
20.4 1.1 0
20.8 1.1 0
21.2 1.1 0
21.6 1.1 0
22 1.1 0
22.4 1.1 0
22.8 1.1 0
23.2 1.1 0
23.6 1.1 0
24 1.1 0
24.4 1.1 0
24.8 1.1 0
25.2 1.1 0
25.6 1.1 0
26 1.1 0
26.4 1.1 0
26.8 1.1 0
27.2 1.1 0
27.6 1.1 0
28 1.1 0
28.4 1.1 0
28.8 1.1 0
29.2 1.1 0
29.6 1.1 0
30 1.1 0
30.4 1.1 0
30.8 1.1 0
31.2 1.1 0
31.6 1.1 0
32 1.1 0
32.4 1.1 0
32.8 1.1 0
33.2 1.1 0
33.6 1.1 0
34 1.1 0
34.4 1.1 0
34.8 1.1 0
35.2 1.1 0
35.6 1.1 0
36 1.1 0
36.4 1.1 0
36.8 1.1 0
37.2 1.1 0
37.6 1.1 0
38 1.1 0
38.4 1.1 0
38.8 1.1 0
39.2 1.1 0
39.6 1.1 0
40 1.1 0
40.4 1.1 0

POINT_DATA 1224

SCALARS v double
LOOKUP_TABLE default
0
0
0
0
0
0
0
0
0
0
0
0
0
0
0
0
0
0
0
0
0
0
0
0
0
0
0
0
0
0
0
0
0
0
0
0
0
0
0
0
0
0
0
0
0
0
0
0
0
0
0
0
0
0
0
0
0
0
0
0
0
0
0
0
0
0
0
0
0
0
0
0
0
0
0
0
0
0
0
0
0
0
0
0
0
0
0
0
0
0
0
0
0
0
0
0
0
0
0
0
0
0
-0.00751344
0.00751344
0.0146552
0.0162813
0.0149618
0.0125487
0.0100747
0.00795881
0.00628244
0.00499023
0.00399569
0.00322207
0.00261166
0.00212355
0.00172906
0.00140775
0.00114465
0.000928488
0.000750569
0.00060402
0.000483312
0.000383916
0.000302074
0.000234645
0.000179004
0.000132984
9.48362e-05
6.31688e-05
3.68537e-05
1.46716e-05
-3.84577e-06
-1.80537e-05
-2.82385e-05
-3.47523e-05
-3.8033e-05
-3.86098e-05
-3.70723e-05
-3.40237e-05
-3.00348e-05
-2.56052e-05
-2.11382e-05
-1.69295e-05
-1.31699e-05
-9.95836e-06
-7.32073e-06
-5.2304e-06
-3.62815e-06
-2.43861e-06
-1.58273e-06
-9.86072e-07
-5.83621e-07
-3.21716e-07
-1.58143e-07
-6.10489e-08
-7.33883e-09
1.9057e-08
2.95526e-08
3.11669e-08
2.82627e-08
2.34352e-08
1.81379e-08
1.31153e-08
8.68899e-09
4.9424e-09
1.84239e-09
-6.69881e-10
-2.68745e-09
-4.33251e-09
-5.69528e-09
-6.8468e-09
-7.84445e-09
-8.73194e-09
-9.54146e-09
-1.02963e-08
-1.10131e-08
-1.17036e-08
-1.23758e-08
-1.30354e-08
-1.36859e-08
-1.43294e-08
-1.49675e-08
-1.56e-08
-1.62297e-08
-1.68483e-08
-1.74962e-08
-1.80604e-08
-1.91266e-08
-1.91675e-08
-2.6305e-08
-2.0412e-08
-1.11302e-07
-3.98477e-08
-1.27113e-06
-5.237e-07
-1.72583e-05
-1.03092e-05
-0.00023997
-0.000167367
-0.0034867
-0.00151195
-0.0477267
-0.0477263
-0.00621568
0.00621568
0.0142999
0.0183624
0.0194157
0.0185586
0.0167091
0.0144992
0.0122985
0.0102886
0.00853605
0.00704675
0.00579866
0.00476024
0.00389927
0.00318651
0.00259685
0.00210928
0.00170641
0.00137388
0.00109978
0.000874189
0.00068878
0.0005365
0.000411387
0.00030843
0.000223507
0.000153276
9.50664e-05
4.67858e-05
6.42456e-06
-2.63005e-05
-5.12037e-05
-6.85194e-05
-7.88185e-05
-8.29529e-05
-8.19911e-05
-7.71282e-05
-6.95813e-05
-6.04893e-05
-5.08318e-05
-4.138e-05
-3.26787e-05
-2.50576e-05
-1.86629e-05
-1.34993e-05
-9.47494e-06
-6.44208e-06
-4.2298e-06
-2.66778e-06
-1.60128e-06
-8.9882e-07
-4.54523e-07
-1.86961e-07
-3.5973e-08
4.06683e-08
7.30715e-08
8.04932e-08
7.49787e-08
6.37467e-08
5.0888e-08
3.8538e-08
2.76582e-08
1.85449e-08
1.11439e-08
5.23032e-09
5.48675e-10
-3.1153e-09
-5.9967e-09
-8.29895e-09
-1.01799e-08
-1.17578e-08
-1.312e-08
-1.43298e-08
-1.54328e-08
-1.64613e-08
-1.7438e-08
-1.83783e-08
-1.92927e-08
-2.01877e-08
-2.10675e-08
-2.19331e-08
-2.27896e-08
-2.36222e-08
-2.44983e-08
-2.52031e-08
-2.67198e-08
-2.60618e-08
-3.69611e-08
-1.9092e-08
-1.59457e-07
7.63894e-08
-1.83085e-06
1.16076e-06
-2.49124e-05
1.30728e-05
-0.000346214
0.000139475
-0.00480711
0.000863688
-0.0611395
-0.0611388
-0.00401801
0.00401801
0.00987185
0.0135457
0.0153924
0.0158461
0.015338
0.0142366
0.0128244
0.0112996
0.00979085
0.00837402
0.00708838
0.00594915
0.00495671
0.00410302
0.00337579
0.00276105
0.00224473
0.0018135
0.00145513
0.00115866
0.000914351
0.000713657
0.000549094
0.000414193
0.00030346
0.000212353
0.000137145
7.49896e-05
2.36164e-05
-1.86557e-05
-5.20832e-05
-7.68221e-05
-9.32116e-05
-0.000101896
-0.000103844
-0.00010029
-9.26207e-05
-8.22474e-05
-7.04765e-05
-5.84136e-05
-4.69065e-05
-3.65299e-05
-2.76047e-05
-2.02408e-05
-1.43912e-05
-9.90709e-06
-6.58528e-06
-4.20637e-06
-2.56042e-06
-1.46236e-06
-7.58859e-07
-3.29238e-07
-8.2618e-08
4.61795e-08
1.03287e-07
1.19299e-07
1.13615e-07
9.80032e-08
7.92186e-08
6.08449e-08
4.45446e-08
3.08777e-08
1.9817e-08
1.10564e-08
4.19347e-09
-1.14643e-09
-5.27887e-09
-8.5023e-09
-1.10596e-08
-1.31347e-08
-1.48635e-08
-1.63454e-08
-1.76523e-08
-1.88357e-08
-1.99324e-08
-2.09679e-08
-2.19597e-08
-2.29192e-08
-2.38536e-08
-2.47661e-08
-2.56617e-08
-2.65274e-08
-2.74248e-08
-2.81351e-08
-2.96461e-08
-2.86199e-08
-3.98141e-08
-1.46756e-08
-1.64992e-07
1.9195e-07
-1.89879e-06
2.89055e-06
-2.56319e-05
3.59684e-05
-0.000342259
0.000391758
-0.00436796
0.00280982
-0.0514758
-0.051475
-0.00195406
0.00195406
0.00490746
0.00691944
0.00813033
0.0086901
0.00874625
0.00843555
0.00787798
0.00717312
0.00639891
0.00561273
0.00485393
0.00414729
0.00350644
0.00293698
0.00243905
0.00200935
0.00164254
0.00133233
0.00107209
0.000855351
0.000675955
0.000528245
0.000407089
0.000307924
0.000226766
0.000160244
0.000105559
6.04702e-05
2.33665e-05
-7.09244e-06
-3.1509e-05
-5.01261e-05
-6.31374e-05
-7.08481e-05
-7.376e-05
-7.25826e-05
-6.81844e-05
-6.15106e-05
-5.34896e-05
-4.49513e-05
-3.65688e-05
-2.88307e-05
-2.20411e-05
-1.63408e-05
-1.1742e-05
-8.16708e-06
-5.48484e-06
-3.5412e-06
-2.18146e-06
-1.26464e-06
-6.70959e-07
-3.04232e-07
-9.08683e-08
2.29518e-08
7.5244e-08
9.17396e-08
8.89998e-08
7.71972e-08
6.22393e-08
4.7304e-08
3.38993e-08
2.25672e-08
1.33285e-08
5.95137e-09
1.27375e-10
-4.44178e-09
-8.03909e-09
-1.09016e-08
-1.32162e-08
-1.51262e-08
-1.6739e-08
-1.81345e-08
-1.93718e-08
-2.04942e-08
-2.15334e-08
-2.2512e-08
-2.3446e-08
-2.43461e-08
-2.52194e-08
-2.60685e-08
-2.68977e-08
-2.76946e-08
-2.85095e-08
-2.91524e-08
-3.04139e-08
-2.95065e-08
-3.79613e-08
-1.61785e-08
-1.26555e-07
1.76561e-07
-1.32326e-06
2.62813e-06
-1.70943e-05
3.13683e-05
-0.000216273
0.000323347
-0.00258591
0.00234519
-0.0288965
-0.028896
-2.40782e-09
2.40669e-09
6.72715e-09
1.06379e-08
1.4243e-08
1.75901e-08
2.06827e-08
2.35023e-08
2.60334e-08
2.82876e-08
3.03164e-08
3.22134e-08
3.41041e-08
3.61291e-08
3.84259e-08
4.11121e-08
4.42702e-08
4.7937e-08
5.21013e-08
5.67165e-08
6.17265e-08
6.70876e-08
7.27546e-08
7.85981e-08
8.42416e-08
8.88664e-08
9.10711e-08
8.8927e-08
8.02449e-08
6.30916e-08
3.69979e-08
3.14548e-09
-3.56156e-08
-7.48273e-08
-1.09234e-07
-1.33896e-07
-1.45266e-07
-1.41933e-07
-1.24863e-07
-9.70968e-08
-6.30247e-08
-2.7468e-08
5.20514e-09
3.17323e-08
5.02824e-08
6.04528e-08
6.30128e-08
5.95066e-08
5.18288e-08
4.18586e-08
3.12034e-08
2.1062e-08
1.21962e-08
4.96525e-09
-5.49904e-10
-4.55176e-09
-7.27832e-09
-9.03286e-09
-1.01106e-08
-1.07635e-08
-1.11866e-08
-1.15203e-08
-1.18574e-08
-1.2254e-08
-1.27393e-08
-1.33194e-08
-1.39859e-08
-1.47347e-08
-1.55552e-08
-1.64255e-08
-1.73226e-08
-1.82271e-08
-1.91249e-08
-2.00067e-08
-2.08678e-08
-2.17063e-08
-2.25226e-08
-2.33182e-08
-2.40948e-08
-2.48539e-08
-2.55962e-08
-2.6321e-08
-2.70277e-08
-2.7711e-08
-2.83754e-08
-2.89965e-08
-2.96221e-08
-3.01192e-08
-3.07199e-08
-3.0942e-08
-3.13324e-08
-3.12573e-08
-3.12604e-08
-3.07186e-08
-2.99726e-08
-2.85271e-08
-2.57485e-08
-2.3063e-08
-1.2583e-08
-1.41762e-08
3.77025e-08
3.77251e-08
0.00195405
-0.00195405
-0.00490745
-0.00691942
-0.00813031
-0.00869006
-0.0087462
-0.0084355
-0.00787793
-0.00717306
-0.00639885
-0.00561267
-0.00485387
-0.00414723
-0.00350637
-0.0029369
-0.00243897
-0.00200926
-0.00164244
-0.00133222
-0.00107198
-0.000855224
-0.000675818
-0.000528097
-0.000406931
-0.000307758
-0.000226598
-0.000160082
-0.000105415
-6.03608e-05
-2.33076e-05
7.08704e-06
3.14318e-05
4.99783e-05
6.293e-05
7.06005e-05
7.34974e-05
7.23317e-05
6.79693e-05
6.13491e-05
5.33913e-05
4.49171e-05
3.65921e-05
2.88993e-05
2.214e-05
1.6455e-05
1.18582e-05
8.27486e-06
5.57731e-06
3.61485e-06
2.23556e-06
1.30047e-06
6.91027e-07
3.11594e-07
8.85964e-08
-3.21094e-08
-8.90881e-08
-1.08628e-07
-1.07808e-07
-9.72308e-08
-8.31373e-08
-6.89411e-08
-5.63046e-08
-4.586e-08
-3.76733e-08
-3.15303e-08
-2.71097e-08
-2.40805e-08
-2.21339e-08
-2.09989e-08
-2.04528e-08
-2.03214e-08
-2.04736e-08
-2.0814e-08
-2.12751e-08
-2.18105e-08
-2.23892e-08
-2.29912e-08
-2.36035e-08
-2.42175e-08
-2.48272e-08
-2.54283e-08
-2.60139e-08
-2.65901e-08
-2.71052e-08
-2.77294e-08
-2.76937e-08
-2.97092e-08
-2.22859e-08
-4.49246e-08
6.50818e-08
-2.38335e-07
1.26184e-06
-2.68892e-06
1.70352e-05
-3.14248e-05
0.000216222
-0.000323392
0.00258588
-0.00234522
0.0288966
0.028896
0.00401801
-0.00401801
-0.00987184
-0.0135457
-0.0153924
-0.0158461
-0.0153379
-0.0142366
-0.0128243
-0.0112996
-0.0097908
-0.00837396
-0.00708833
-0.00594909
-0.00495665
-0.00410296
-0.00337571
-0.00276097
-0.00224465
-0.00181341
-0.00145504
-0.00115855
-0.000914236
-0.000713534
-0.000548964
-0.000414059
-0.000303328
-0.000212231
-0.000137043
-7.49205e-05
-2.35914e-05
1.86283e-05
5.20017e-05
7.6692e-05
9.30452e-05
0.000101711
0.00010366
0.000100125
9.24904e-05
8.21616e-05
7.04384e-05
5.84204e-05
4.69507e-05
3.66011e-05
2.76916e-05
2.03329e-05
1.44798e-05
9.98581e-06
6.65048e-06
4.25663e-06
2.59608e-06
1.48493e-06
7.70478e-07
3.32221e-07
7.91194e-08
-5.42277e-08
-1.14497e-07
-1.3268e-07
-1.28513e-07
-1.14041e-07
-9.62243e-08
-7.87873e-08
-6.3482e-08
-5.09167e-08
-4.10852e-08
-3.36889e-08
-2.83249e-08
-2.45863e-08
-2.21026e-08
-2.05569e-08
-1.96925e-08
-1.93105e-08
-1.92615e-08
-1.94367e-08
-1.97591e-08
-2.01754e-08
-2.06493e-08
-2.11571e-08
-2.1683e-08
-2.22165e-08
-2.27501e-08
-2.32792e-08
-2.37946e-08
-2.43077e-08
-2.47441e-08
-2.53404e-08
-2.50363e-08
-2.7338e-08
-1.70284e-08
-4.35371e-08
1.06746e-07
-2.51072e-07
1.84027e-06
-2.94903e-06
2.55753e-05
-3.60229e-05
0.000342209
-0.0003918
0.00436793
-0.00280984
0.0514758
0.051475
0.00621567
-0.00621567
-0.0142999
-0.0183624
-0.0194157
-0.0185586
-0.016709
-0.0144991
-0.0122985
-0.0102885
-0.00853601
-0.00704671
-0.00579861
-0.00476019
-0.00389922
-0.00318646
-0.0025968
-0.00210922
-0.00170635
-0.00137381
-0.0010997
-0.000874111
-0.000688696
-0.000536413
-0.000411297
-0.00030834
-0.000223422
-0.000153202
-9.50106e-05
-4.67547e-05
-6.42398e-06
2.62692e-05
5.11436e-05
6.84372e-05
7.87239e-05
8.28569e-05
8.19046e-05
7.70602e-05
6.95378e-05
6.04725e-05
5.08408e-05
4.1411e-05
3.27259e-05
2.51148e-05
1.87237e-05
1.35585e-05
9.52869e-06
6.48788e-06
4.26652e-06
2.69537e-06
1.62046e-06
9.10719e-07
4.60459e-07
1.88217e-07
3.36692e-08
-4.55691e-08
-7.99353e-08
-8.89029e-08
-8.46758e-08
-7.45967e-08
-6.28462e-08
-5.16212e-08
-4.19213e-08
-3.40608e-08
-2.79911e-08
-2.34966e-08
-2.03057e-08
-1.81497e-08
-1.67869e-08
-1.6013e-08
-1.56644e-08
-1.56151e-08
-1.57714e-08
-1.60657e-08
-1.64501e-08
-1.68919e-08
-1.7369e-08
-1.78667e-08
-1.83753e-08
-1.88881e-08
-1.94002e-08
-1.99091e-08
-2.04059e-08
-2.0906e-08
-2.13271e-08
-2.19132e-08
-2.15879e-08
-2.35698e-08
-1.36496e-08
-3.29018e-08
1.06561e-07
-1.29622e-07
1.77721e-06
-1.21377e-06
2.48602e-05
-1.31227e-05
0.000346168
-0.000139515
0.00480708
-0.000863695
0.0611395
0.0611388
0.00751343
-0.00751343
-0.0146552
-0.0162812
-0.0149618
-0.0125487
-0.0100746
-0.00795879
-0.00628242
-0.0049902
-0.00399566
-0.00322204
-0.00261163
-0.00212352
-0.00172903
-0.00140772
-0.00114461
-0.000928452
-0.00075053
-0.000603979
-0.000483269
-0.000383871
-0.000302027
-0.000234597
-0.000178956
-0.000132938
-9.47943e-05
-6.31335e-05
-3.68278e-05
-1.46576e-05
3.84713e-06
1.80435e-05
2.82193e-05
3.47277e-05
3.8007e-05
3.85868e-05
3.70556e-05
3.40157e-05
3.00367e-05
2.56168e-05
2.11582e-05
1.69557e-05
1.32e-05
9.9899e-06
7.35159e-06
5.25893e-06
3.65325e-06
2.45971e-06
1.59969e-06
9.99084e-07
5.93077e-07
3.28104e-07
1.61964e-07
6.27578e-08
7.32964e-09
-2.04854e-08
-3.21869e-08
-3.48895e-08
-3.301e-08
-2.9177e-08
-2.487e-08
-2.08543e-08
-1.74666e-08
-1.47991e-08
-1.28175e-08
-1.14312e-08
-1.05325e-08
-1.00175e-08
-9.7939e-09
-9.78458e-09
-9.92861e-09
-1.01796e-08
-1.05035e-08
-1.08758e-08
-1.12796e-08
-1.17033e-08
-1.21392e-08
-1.25822e-08
-1.30288e-08
-1.34768e-08
-1.3924e-08
-1.43696e-08
-1.48088e-08
-1.52499e-08
-1.56438e-08
-1.61218e-08
-1.60408e-08
-1.71002e-08
-1.08724e-08
-1.80262e-08
7.185e-08
3.13818e-10
1.23109e-06
4.83931e-07
1.72187e-05
1.02708e-05
0.000239933
0.000167335
0.00348667
0.00151194
0.0477266
0.0477263
0
0
0
0
0
0
0
0
0
0
0
0
0
0
0
0
0
0
0
0
0
0
0
0
0
0
0
0
0
0
0
0
0
0
0
0
0
0
0
0
0
0
0
0
0
0
0
0
0
0
0
0
0
0
0
0
0
0
0
0
0
0
0
0
0
0
0
0
0
0
0
0
0
0
0
0
0
0
0
0
0
0
0
0
0
0
0
0
0
0
0
0
0
0
0
0
0
0
0
0
0
0
0
0
0
0
0
0
0
0
0
0
0
0
0
0
0
0
0
0
0
0
0
0
0
0
0
0
0
0
0
0
0
0
0
0
0
0
0
0
0
0
0
0
0
0
0
0
0
0
0
0
0
0
0
0
0
0
0
0
0
0
0
0
0
0
0
0
0
0
0
0
0
0
0
0
0
0
0
0
0
0
0
0
0
0
0
0
0
0
0
0
0
0
0
0
0
0
0
0
0
0
0
0
