# vtk DataFile Version 2.0
FlowField
ASCII
DATASET STRUCTURED_GRID
DIMENSIONS 102 1 12 
POINTS 1224 double
0 0 0
0.4 0 0
0.8 0 0
1.2 0 0
1.6 0 0
2 0 0
2.4 0 0
2.8 0 0
3.2 0 0
3.6 0 0
4 0 0
4.4 0 0
4.8 0 0
5.2 0 0
5.6 0 0
6 0 0
6.4 0 0
6.8 0 0
7.2 0 0
7.6 0 0
8 0 0
8.4 0 0
8.8 0 0
9.2 0 0
9.6 0 0
10 0 0
10.4 0 0
10.8 0 0
11.2 0 0
11.6 0 0
12 0 0
12.4 0 0
12.8 0 0
13.2 0 0
13.6 0 0
14 0 0
14.4 0 0
14.8 0 0
15.2 0 0
15.6 0 0
16 0 0
16.4 0 0
16.8 0 0
17.2 0 0
17.6 0 0
18 0 0
18.4 0 0
18.8 0 0
19.2 0 0
19.6 0 0
20 0 0
20.4 0 0
20.8 0 0
21.2 0 0
21.6 0 0
22 0 0
22.4 0 0
22.8 0 0
23.2 0 0
23.6 0 0
24 0 0
24.4 0 0
24.8 0 0
25.2 0 0
25.6 0 0
26 0 0
26.4 0 0
26.8 0 0
27.2 0 0
27.6 0 0
28 0 0
28.4 0 0
28.8 0 0
29.2 0 0
29.6 0 0
30 0 0
30.4 0 0
30.8 0 0
31.2 0 0
31.6 0 0
32 0 0
32.4 0 0
32.8 0 0
33.2 0 0
33.6 0 0
34 0 0
34.4 0 0
34.8 0 0
35.2 0 0
35.6 0 0
36 0 0
36.4 0 0
36.8 0 0
37.2 0 0
37.6 0 0
38 0 0
38.4 0 0
38.8 0 0
39.2 0 0
39.6 0 0
40 0 0
40.4 0 0
0 0.1 0
0.4 0.1 0
0.8 0.1 0
1.2 0.1 0
1.6 0.1 0
2 0.1 0
2.4 0.1 0
2.8 0.1 0
3.2 0.1 0
3.6 0.1 0
4 0.1 0
4.4 0.1 0
4.8 0.1 0
5.2 0.1 0
5.6 0.1 0
6 0.1 0
6.4 0.1 0
6.8 0.1 0
7.2 0.1 0
7.6 0.1 0
8 0.1 0
8.4 0.1 0
8.8 0.1 0
9.2 0.1 0
9.6 0.1 0
10 0.1 0
10.4 0.1 0
10.8 0.1 0
11.2 0.1 0
11.6 0.1 0
12 0.1 0
12.4 0.1 0
12.8 0.1 0
13.2 0.1 0
13.6 0.1 0
14 0.1 0
14.4 0.1 0
14.8 0.1 0
15.2 0.1 0
15.6 0.1 0
16 0.1 0
16.4 0.1 0
16.8 0.1 0
17.2 0.1 0
17.6 0.1 0
18 0.1 0
18.4 0.1 0
18.8 0.1 0
19.2 0.1 0
19.6 0.1 0
20 0.1 0
20.4 0.1 0
20.8 0.1 0
21.2 0.1 0
21.6 0.1 0
22 0.1 0
22.4 0.1 0
22.8 0.1 0
23.2 0.1 0
23.6 0.1 0
24 0.1 0
24.4 0.1 0
24.8 0.1 0
25.2 0.1 0
25.6 0.1 0
26 0.1 0
26.4 0.1 0
26.8 0.1 0
27.2 0.1 0
27.6 0.1 0
28 0.1 0
28.4 0.1 0
28.8 0.1 0
29.2 0.1 0
29.6 0.1 0
30 0.1 0
30.4 0.1 0
30.8 0.1 0
31.2 0.1 0
31.6 0.1 0
32 0.1 0
32.4 0.1 0
32.8 0.1 0
33.2 0.1 0
33.6 0.1 0
34 0.1 0
34.4 0.1 0
34.8 0.1 0
35.2 0.1 0
35.6 0.1 0
36 0.1 0
36.4 0.1 0
36.8 0.1 0
37.2 0.1 0
37.6 0.1 0
38 0.1 0
38.4 0.1 0
38.8 0.1 0
39.2 0.1 0
39.6 0.1 0
40 0.1 0
40.4 0.1 0
0 0.2 0
0.4 0.2 0
0.8 0.2 0
1.2 0.2 0
1.6 0.2 0
2 0.2 0
2.4 0.2 0
2.8 0.2 0
3.2 0.2 0
3.6 0.2 0
4 0.2 0
4.4 0.2 0
4.8 0.2 0
5.2 0.2 0
5.6 0.2 0
6 0.2 0
6.4 0.2 0
6.8 0.2 0
7.2 0.2 0
7.6 0.2 0
8 0.2 0
8.4 0.2 0
8.8 0.2 0
9.2 0.2 0
9.6 0.2 0
10 0.2 0
10.4 0.2 0
10.8 0.2 0
11.2 0.2 0
11.6 0.2 0
12 0.2 0
12.4 0.2 0
12.8 0.2 0
13.2 0.2 0
13.6 0.2 0
14 0.2 0
14.4 0.2 0
14.8 0.2 0
15.2 0.2 0
15.6 0.2 0
16 0.2 0
16.4 0.2 0
16.8 0.2 0
17.2 0.2 0
17.6 0.2 0
18 0.2 0
18.4 0.2 0
18.8 0.2 0
19.2 0.2 0
19.6 0.2 0
20 0.2 0
20.4 0.2 0
20.8 0.2 0
21.2 0.2 0
21.6 0.2 0
22 0.2 0
22.4 0.2 0
22.8 0.2 0
23.2 0.2 0
23.6 0.2 0
24 0.2 0
24.4 0.2 0
24.8 0.2 0
25.2 0.2 0
25.6 0.2 0
26 0.2 0
26.4 0.2 0
26.8 0.2 0
27.2 0.2 0
27.6 0.2 0
28 0.2 0
28.4 0.2 0
28.8 0.2 0
29.2 0.2 0
29.6 0.2 0
30 0.2 0
30.4 0.2 0
30.8 0.2 0
31.2 0.2 0
31.6 0.2 0
32 0.2 0
32.4 0.2 0
32.8 0.2 0
33.2 0.2 0
33.6 0.2 0
34 0.2 0
34.4 0.2 0
34.8 0.2 0
35.2 0.2 0
35.6 0.2 0
36 0.2 0
36.4 0.2 0
36.8 0.2 0
37.2 0.2 0
37.6 0.2 0
38 0.2 0
38.4 0.2 0
38.8 0.2 0
39.2 0.2 0
39.6 0.2 0
40 0.2 0
40.4 0.2 0
0 0.3 0
0.4 0.3 0
0.8 0.3 0
1.2 0.3 0
1.6 0.3 0
2 0.3 0
2.4 0.3 0
2.8 0.3 0
3.2 0.3 0
3.6 0.3 0
4 0.3 0
4.4 0.3 0
4.8 0.3 0
5.2 0.3 0
5.6 0.3 0
6 0.3 0
6.4 0.3 0
6.8 0.3 0
7.2 0.3 0
7.6 0.3 0
8 0.3 0
8.4 0.3 0
8.8 0.3 0
9.2 0.3 0
9.6 0.3 0
10 0.3 0
10.4 0.3 0
10.8 0.3 0
11.2 0.3 0
11.6 0.3 0
12 0.3 0
12.4 0.3 0
12.8 0.3 0
13.2 0.3 0
13.6 0.3 0
14 0.3 0
14.4 0.3 0
14.8 0.3 0
15.2 0.3 0
15.6 0.3 0
16 0.3 0
16.4 0.3 0
16.8 0.3 0
17.2 0.3 0
17.6 0.3 0
18 0.3 0
18.4 0.3 0
18.8 0.3 0
19.2 0.3 0
19.6 0.3 0
20 0.3 0
20.4 0.3 0
20.8 0.3 0
21.2 0.3 0
21.6 0.3 0
22 0.3 0
22.4 0.3 0
22.8 0.3 0
23.2 0.3 0
23.6 0.3 0
24 0.3 0
24.4 0.3 0
24.8 0.3 0
25.2 0.3 0
25.6 0.3 0
26 0.3 0
26.4 0.3 0
26.8 0.3 0
27.2 0.3 0
27.6 0.3 0
28 0.3 0
28.4 0.3 0
28.8 0.3 0
29.2 0.3 0
29.6 0.3 0
30 0.3 0
30.4 0.3 0
30.8 0.3 0
31.2 0.3 0
31.6 0.3 0
32 0.3 0
32.4 0.3 0
32.8 0.3 0
33.2 0.3 0
33.6 0.3 0
34 0.3 0
34.4 0.3 0
34.8 0.3 0
35.2 0.3 0
35.6 0.3 0
36 0.3 0
36.4 0.3 0
36.8 0.3 0
37.2 0.3 0
37.6 0.3 0
38 0.3 0
38.4 0.3 0
38.8 0.3 0
39.2 0.3 0
39.6 0.3 0
40 0.3 0
40.4 0.3 0
0 0.4 0
0.4 0.4 0
0.8 0.4 0
1.2 0.4 0
1.6 0.4 0
2 0.4 0
2.4 0.4 0
2.8 0.4 0
3.2 0.4 0
3.6 0.4 0
4 0.4 0
4.4 0.4 0
4.8 0.4 0
5.2 0.4 0
5.6 0.4 0
6 0.4 0
6.4 0.4 0
6.8 0.4 0
7.2 0.4 0
7.6 0.4 0
8 0.4 0
8.4 0.4 0
8.8 0.4 0
9.2 0.4 0
9.6 0.4 0
10 0.4 0
10.4 0.4 0
10.8 0.4 0
11.2 0.4 0
11.6 0.4 0
12 0.4 0
12.4 0.4 0
12.8 0.4 0
13.2 0.4 0
13.6 0.4 0
14 0.4 0
14.4 0.4 0
14.8 0.4 0
15.2 0.4 0
15.6 0.4 0
16 0.4 0
16.4 0.4 0
16.8 0.4 0
17.2 0.4 0
17.6 0.4 0
18 0.4 0
18.4 0.4 0
18.8 0.4 0
19.2 0.4 0
19.6 0.4 0
20 0.4 0
20.4 0.4 0
20.8 0.4 0
21.2 0.4 0
21.6 0.4 0
22 0.4 0
22.4 0.4 0
22.8 0.4 0
23.2 0.4 0
23.6 0.4 0
24 0.4 0
24.4 0.4 0
24.8 0.4 0
25.2 0.4 0
25.6 0.4 0
26 0.4 0
26.4 0.4 0
26.8 0.4 0
27.2 0.4 0
27.6 0.4 0
28 0.4 0
28.4 0.4 0
28.8 0.4 0
29.2 0.4 0
29.6 0.4 0
30 0.4 0
30.4 0.4 0
30.8 0.4 0
31.2 0.4 0
31.6 0.4 0
32 0.4 0
32.4 0.4 0
32.8 0.4 0
33.2 0.4 0
33.6 0.4 0
34 0.4 0
34.4 0.4 0
34.8 0.4 0
35.2 0.4 0
35.6 0.4 0
36 0.4 0
36.4 0.4 0
36.8 0.4 0
37.2 0.4 0
37.6 0.4 0
38 0.4 0
38.4 0.4 0
38.8 0.4 0
39.2 0.4 0
39.6 0.4 0
40 0.4 0
40.4 0.4 0
0 0.5 0
0.4 0.5 0
0.8 0.5 0
1.2 0.5 0
1.6 0.5 0
2 0.5 0
2.4 0.5 0
2.8 0.5 0
3.2 0.5 0
3.6 0.5 0
4 0.5 0
4.4 0.5 0
4.8 0.5 0
5.2 0.5 0
5.6 0.5 0
6 0.5 0
6.4 0.5 0
6.8 0.5 0
7.2 0.5 0
7.6 0.5 0
8 0.5 0
8.4 0.5 0
8.8 0.5 0
9.2 0.5 0
9.6 0.5 0
10 0.5 0
10.4 0.5 0
10.8 0.5 0
11.2 0.5 0
11.6 0.5 0
12 0.5 0
12.4 0.5 0
12.8 0.5 0
13.2 0.5 0
13.6 0.5 0
14 0.5 0
14.4 0.5 0
14.8 0.5 0
15.2 0.5 0
15.6 0.5 0
16 0.5 0
16.4 0.5 0
16.8 0.5 0
17.2 0.5 0
17.6 0.5 0
18 0.5 0
18.4 0.5 0
18.8 0.5 0
19.2 0.5 0
19.6 0.5 0
20 0.5 0
20.4 0.5 0
20.8 0.5 0
21.2 0.5 0
21.6 0.5 0
22 0.5 0
22.4 0.5 0
22.8 0.5 0
23.2 0.5 0
23.6 0.5 0
24 0.5 0
24.4 0.5 0
24.8 0.5 0
25.2 0.5 0
25.6 0.5 0
26 0.5 0
26.4 0.5 0
26.8 0.5 0
27.2 0.5 0
27.6 0.5 0
28 0.5 0
28.4 0.5 0
28.8 0.5 0
29.2 0.5 0
29.6 0.5 0
30 0.5 0
30.4 0.5 0
30.8 0.5 0
31.2 0.5 0
31.6 0.5 0
32 0.5 0
32.4 0.5 0
32.8 0.5 0
33.2 0.5 0
33.6 0.5 0
34 0.5 0
34.4 0.5 0
34.8 0.5 0
35.2 0.5 0
35.6 0.5 0
36 0.5 0
36.4 0.5 0
36.8 0.5 0
37.2 0.5 0
37.6 0.5 0
38 0.5 0
38.4 0.5 0
38.8 0.5 0
39.2 0.5 0
39.6 0.5 0
40 0.5 0
40.4 0.5 0
0 0.6 0
0.4 0.6 0
0.8 0.6 0
1.2 0.6 0
1.6 0.6 0
2 0.6 0
2.4 0.6 0
2.8 0.6 0
3.2 0.6 0
3.6 0.6 0
4 0.6 0
4.4 0.6 0
4.8 0.6 0
5.2 0.6 0
5.6 0.6 0
6 0.6 0
6.4 0.6 0
6.8 0.6 0
7.2 0.6 0
7.6 0.6 0
8 0.6 0
8.4 0.6 0
8.8 0.6 0
9.2 0.6 0
9.6 0.6 0
10 0.6 0
10.4 0.6 0
10.8 0.6 0
11.2 0.6 0
11.6 0.6 0
12 0.6 0
12.4 0.6 0
12.8 0.6 0
13.2 0.6 0
13.6 0.6 0
14 0.6 0
14.4 0.6 0
14.8 0.6 0
15.2 0.6 0
15.6 0.6 0
16 0.6 0
16.4 0.6 0
16.8 0.6 0
17.2 0.6 0
17.6 0.6 0
18 0.6 0
18.4 0.6 0
18.8 0.6 0
19.2 0.6 0
19.6 0.6 0
20 0.6 0
20.4 0.6 0
20.8 0.6 0
21.2 0.6 0
21.6 0.6 0
22 0.6 0
22.4 0.6 0
22.8 0.6 0
23.2 0.6 0
23.6 0.6 0
24 0.6 0
24.4 0.6 0
24.8 0.6 0
25.2 0.6 0
25.6 0.6 0
26 0.6 0
26.4 0.6 0
26.8 0.6 0
27.2 0.6 0
27.6 0.6 0
28 0.6 0
28.4 0.6 0
28.8 0.6 0
29.2 0.6 0
29.6 0.6 0
30 0.6 0
30.4 0.6 0
30.8 0.6 0
31.2 0.6 0
31.6 0.6 0
32 0.6 0
32.4 0.6 0
32.8 0.6 0
33.2 0.6 0
33.6 0.6 0
34 0.6 0
34.4 0.6 0
34.8 0.6 0
35.2 0.6 0
35.6 0.6 0
36 0.6 0
36.4 0.6 0
36.8 0.6 0
37.2 0.6 0
37.6 0.6 0
38 0.6 0
38.4 0.6 0
38.8 0.6 0
39.2 0.6 0
39.6 0.6 0
40 0.6 0
40.4 0.6 0
0 0.7 0
0.4 0.7 0
0.8 0.7 0
1.2 0.7 0
1.6 0.7 0
2 0.7 0
2.4 0.7 0
2.8 0.7 0
3.2 0.7 0
3.6 0.7 0
4 0.7 0
4.4 0.7 0
4.8 0.7 0
5.2 0.7 0
5.6 0.7 0
6 0.7 0
6.4 0.7 0
6.8 0.7 0
7.2 0.7 0
7.6 0.7 0
8 0.7 0
8.4 0.7 0
8.8 0.7 0
9.2 0.7 0
9.6 0.7 0
10 0.7 0
10.4 0.7 0
10.8 0.7 0
11.2 0.7 0
11.6 0.7 0
12 0.7 0
12.4 0.7 0
12.8 0.7 0
13.2 0.7 0
13.6 0.7 0
14 0.7 0
14.4 0.7 0
14.8 0.7 0
15.2 0.7 0
15.6 0.7 0
16 0.7 0
16.4 0.7 0
16.8 0.7 0
17.2 0.7 0
17.6 0.7 0
18 0.7 0
18.4 0.7 0
18.8 0.7 0
19.2 0.7 0
19.6 0.7 0
20 0.7 0
20.4 0.7 0
20.8 0.7 0
21.2 0.7 0
21.6 0.7 0
22 0.7 0
22.4 0.7 0
22.8 0.7 0
23.2 0.7 0
23.6 0.7 0
24 0.7 0
24.4 0.7 0
24.8 0.7 0
25.2 0.7 0
25.6 0.7 0
26 0.7 0
26.4 0.7 0
26.8 0.7 0
27.2 0.7 0
27.6 0.7 0
28 0.7 0
28.4 0.7 0
28.8 0.7 0
29.2 0.7 0
29.6 0.7 0
30 0.7 0
30.4 0.7 0
30.8 0.7 0
31.2 0.7 0
31.6 0.7 0
32 0.7 0
32.4 0.7 0
32.8 0.7 0
33.2 0.7 0
33.6 0.7 0
34 0.7 0
34.4 0.7 0
34.8 0.7 0
35.2 0.7 0
35.6 0.7 0
36 0.7 0
36.4 0.7 0
36.8 0.7 0
37.2 0.7 0
37.6 0.7 0
38 0.7 0
38.4 0.7 0
38.8 0.7 0
39.2 0.7 0
39.6 0.7 0
40 0.7 0
40.4 0.7 0
0 0.8 0
0.4 0.8 0
0.8 0.8 0
1.2 0.8 0
1.6 0.8 0
2 0.8 0
2.4 0.8 0
2.8 0.8 0
3.2 0.8 0
3.6 0.8 0
4 0.8 0
4.4 0.8 0
4.8 0.8 0
5.2 0.8 0
5.6 0.8 0
6 0.8 0
6.4 0.8 0
6.8 0.8 0
7.2 0.8 0
7.6 0.8 0
8 0.8 0
8.4 0.8 0
8.8 0.8 0
9.2 0.8 0
9.6 0.8 0
10 0.8 0
10.4 0.8 0
10.8 0.8 0
11.2 0.8 0
11.6 0.8 0
12 0.8 0
12.4 0.8 0
12.8 0.8 0
13.2 0.8 0
13.6 0.8 0
14 0.8 0
14.4 0.8 0
14.8 0.8 0
15.2 0.8 0
15.6 0.8 0
16 0.8 0
16.4 0.8 0
16.8 0.8 0
17.2 0.8 0
17.6 0.8 0
18 0.8 0
18.4 0.8 0
18.8 0.8 0
19.2 0.8 0
19.6 0.8 0
20 0.8 0
20.4 0.8 0
20.8 0.8 0
21.2 0.8 0
21.6 0.8 0
22 0.8 0
22.4 0.8 0
22.8 0.8 0
23.2 0.8 0
23.6 0.8 0
24 0.8 0
24.4 0.8 0
24.8 0.8 0
25.2 0.8 0
25.6 0.8 0
26 0.8 0
26.4 0.8 0
26.8 0.8 0
27.2 0.8 0
27.6 0.8 0
28 0.8 0
28.4 0.8 0
28.8 0.8 0
29.2 0.8 0
29.6 0.8 0
30 0.8 0
30.4 0.8 0
30.8 0.8 0
31.2 0.8 0
31.6 0.8 0
32 0.8 0
32.4 0.8 0
32.8 0.8 0
33.2 0.8 0
33.6 0.8 0
34 0.8 0
34.4 0.8 0
34.8 0.8 0
35.2 0.8 0
35.6 0.8 0
36 0.8 0
36.4 0.8 0
36.8 0.8 0
37.2 0.8 0
37.6 0.8 0
38 0.8 0
38.4 0.8 0
38.8 0.8 0
39.2 0.8 0
39.6 0.8 0
40 0.8 0
40.4 0.8 0
0 0.9 0
0.4 0.9 0
0.8 0.9 0
1.2 0.9 0
1.6 0.9 0
2 0.9 0
2.4 0.9 0
2.8 0.9 0
3.2 0.9 0
3.6 0.9 0
4 0.9 0
4.4 0.9 0
4.8 0.9 0
5.2 0.9 0
5.6 0.9 0
6 0.9 0
6.4 0.9 0
6.8 0.9 0
7.2 0.9 0
7.6 0.9 0
8 0.9 0
8.4 0.9 0
8.8 0.9 0
9.2 0.9 0
9.6 0.9 0
10 0.9 0
10.4 0.9 0
10.8 0.9 0
11.2 0.9 0
11.6 0.9 0
12 0.9 0
12.4 0.9 0
12.8 0.9 0
13.2 0.9 0
13.6 0.9 0
14 0.9 0
14.4 0.9 0
14.8 0.9 0
15.2 0.9 0
15.6 0.9 0
16 0.9 0
16.4 0.9 0
16.8 0.9 0
17.2 0.9 0
17.6 0.9 0
18 0.9 0
18.4 0.9 0
18.8 0.9 0
19.2 0.9 0
19.6 0.9 0
20 0.9 0
20.4 0.9 0
20.8 0.9 0
21.2 0.9 0
21.6 0.9 0
22 0.9 0
22.4 0.9 0
22.8 0.9 0
23.2 0.9 0
23.6 0.9 0
24 0.9 0
24.4 0.9 0
24.8 0.9 0
25.2 0.9 0
25.6 0.9 0
26 0.9 0
26.4 0.9 0
26.8 0.9 0
27.2 0.9 0
27.6 0.9 0
28 0.9 0
28.4 0.9 0
28.8 0.9 0
29.2 0.9 0
29.6 0.9 0
30 0.9 0
30.4 0.9 0
30.8 0.9 0
31.2 0.9 0
31.6 0.9 0
32 0.9 0
32.4 0.9 0
32.8 0.9 0
33.2 0.9 0
33.6 0.9 0
34 0.9 0
34.4 0.9 0
34.8 0.9 0
35.2 0.9 0
35.6 0.9 0
36 0.9 0
36.4 0.9 0
36.8 0.9 0
37.2 0.9 0
37.6 0.9 0
38 0.9 0
38.4 0.9 0
38.8 0.9 0
39.2 0.9 0
39.6 0.9 0
40 0.9 0
40.4 0.9 0
0 1 0
0.4 1 0
0.8 1 0
1.2 1 0
1.6 1 0
2 1 0
2.4 1 0
2.8 1 0
3.2 1 0
3.6 1 0
4 1 0
4.4 1 0
4.8 1 0
5.2 1 0
5.6 1 0
6 1 0
6.4 1 0
6.8 1 0
7.2 1 0
7.6 1 0
8 1 0
8.4 1 0
8.8 1 0
9.2 1 0
9.6 1 0
10 1 0
10.4 1 0
10.8 1 0
11.2 1 0
11.6 1 0
12 1 0
12.4 1 0
12.8 1 0
13.2 1 0
13.6 1 0
14 1 0
14.4 1 0
14.8 1 0
15.2 1 0
15.6 1 0
16 1 0
16.4 1 0
16.8 1 0
17.2 1 0
17.6 1 0
18 1 0
18.4 1 0
18.8 1 0
19.2 1 0
19.6 1 0
20 1 0
20.4 1 0
20.8 1 0
21.2 1 0
21.6 1 0
22 1 0
22.4 1 0
22.8 1 0
23.2 1 0
23.6 1 0
24 1 0
24.4 1 0
24.8 1 0
25.2 1 0
25.6 1 0
26 1 0
26.4 1 0
26.8 1 0
27.2 1 0
27.6 1 0
28 1 0
28.4 1 0
28.8 1 0
29.2 1 0
29.6 1 0
30 1 0
30.4 1 0
30.8 1 0
31.2 1 0
31.6 1 0
32 1 0
32.4 1 0
32.8 1 0
33.2 1 0
33.6 1 0
34 1 0
34.4 1 0
34.8 1 0
35.2 1 0
35.6 1 0
36 1 0
36.4 1 0
36.8 1 0
37.2 1 0
37.6 1 0
38 1 0
38.4 1 0
38.8 1 0
39.2 1 0
39.6 1 0
40 1 0
40.4 1 0
0 1.1 0
0.4 1.1 0
0.8 1.1 0
1.2 1.1 0
1.6 1.1 0
2 1.1 0
2.4 1.1 0
2.8 1.1 0
3.2 1.1 0
3.6 1.1 0
4 1.1 0
4.4 1.1 0
4.8 1.1 0
5.2 1.1 0
5.6 1.1 0
6 1.1 0
6.4 1.1 0
6.8 1.1 0
7.2 1.1 0
7.6 1.1 0
8 1.1 0
8.4 1.1 0
8.8 1.1 0
9.2 1.1 0
9.6 1.1 0
10 1.1 0
10.4 1.1 0
10.8 1.1 0
11.2 1.1 0
11.6 1.1 0
12 1.1 0
12.4 1.1 0
12.8 1.1 0
13.2 1.1 0
13.6 1.1 0
14 1.1 0
14.4 1.1 0
14.8 1.1 0
15.2 1.1 0
15.6 1.1 0
16 1.1 0
16.4 1.1 0
16.8 1.1 0
17.2 1.1 0
17.6 1.1 0
18 1.1 0
18.4 1.1 0
18.8 1.1 0
19.2 1.1 0
19.6 1.1 0
20 1.1 0
20.4 1.1 0
20.8 1.1 0
21.2 1.1 0
21.6 1.1 0
22 1.1 0
22.4 1.1 0
22.8 1.1 0
23.2 1.1 0
23.6 1.1 0
24 1.1 0
24.4 1.1 0
24.8 1.1 0
25.2 1.1 0
25.6 1.1 0
26 1.1 0
26.4 1.1 0
26.8 1.1 0
27.2 1.1 0
27.6 1.1 0
28 1.1 0
28.4 1.1 0
28.8 1.1 0
29.2 1.1 0
29.6 1.1 0
30 1.1 0
30.4 1.1 0
30.8 1.1 0
31.2 1.1 0
31.6 1.1 0
32 1.1 0
32.4 1.1 0
32.8 1.1 0
33.2 1.1 0
33.6 1.1 0
34 1.1 0
34.4 1.1 0
34.8 1.1 0
35.2 1.1 0
35.6 1.1 0
36 1.1 0
36.4 1.1 0
36.8 1.1 0
37.2 1.1 0
37.6 1.1 0
38 1.1 0
38.4 1.1 0
38.8 1.1 0
39.2 1.1 0
39.6 1.1 0
40 1.1 0
40.4 1.1 0

POINT_DATA 1224

SCALARS phi double
LOOKUP_TABLE default
0.911625
1.08838
1.18702
1.21779
1.20188
1.16649
1.12308
1.06437
0.981044
0.873568
0.751098
0.625243
0.505548
0.398049
0.305621
0.228906
0.167168
0.118914
0.0822874
0.0553194
0.0360851
0.0228164
0.0139751
0.00828696
0.0047556
0.00264095
0.00141948
0.000738675
0.000372325
0.000181868
8.61385e-05
3.95823e-05
1.76573e-05
7.65119e-06
3.22235e-06
1.3198e-06
5.25999e-07
2.04101e-07
7.71474e-08
2.84212e-08
1.02101e-08
3.57847e-09
1.22419e-09
4.08967e-10
1.33476e-10
4.2578e-11
1.32804e-11
4.05185e-12
1.20971e-12
3.53558e-13
1.01192e-13
2.83718e-14
7.79533e-15
2.09956e-15
5.54507e-16
1.43649e-16
3.65129e-17
9.10879e-18
2.23083e-18
5.36518e-19
1.26743e-19
2.9417e-20
6.70985e-21
1.50443e-21
3.31646e-22
7.18987e-23
1.53322e-23
3.21676e-24
6.64127e-25
1.34955e-25
2.69973e-26
5.31771e-27
1.03153e-27
1.97093e-28
3.70995e-29
6.88091e-30
1.2577e-30
2.26585e-31
4.02419e-32
7.04666e-33
1.21678e-33
2.07218e-34
3.48089e-35
5.7685e-36
9.43199e-37
1.52184e-37
2.42335e-38
3.80889e-39
5.90977e-40
9.05284e-41
1.36928e-41
2.04524e-42
3.01712e-43
4.39618e-44
6.32914e-45
9.00027e-46
1.26882e-46
1.76222e-47
2.53776e-48
3.44866e-49
7.43096e-50
7.43096e-50
0.911625
1.08838
1.18702
1.21779
1.20188
1.16649
1.12308
1.06437
0.981044
0.873568
0.751098
0.625243
0.505548
0.398049
0.305621
0.228906
0.167168
0.118914
0.0822874
0.0553194
0.0360851
0.0228164
0.0139751
0.00828696
0.0047556
0.00264095
0.00141948
0.000738675
0.000372325
0.000181868
8.61385e-05
3.95823e-05
1.76573e-05
7.65119e-06
3.22235e-06
1.3198e-06
5.25999e-07
2.04101e-07
7.71474e-08
2.84212e-08
1.02101e-08
3.57847e-09
1.22419e-09
4.08967e-10
1.33476e-10
4.2578e-11
1.32804e-11
4.05185e-12
1.20971e-12
3.53558e-13
1.01192e-13
2.83718e-14
7.79533e-15
2.09956e-15
5.54507e-16
1.43649e-16
3.65129e-17
9.10879e-18
2.23083e-18
5.36518e-19
1.26743e-19
2.9417e-20
6.70985e-21
1.50443e-21
3.31646e-22
7.18987e-23
1.53322e-23
3.21676e-24
6.64127e-25
1.34955e-25
2.69973e-26
5.31771e-27
1.03153e-27
1.97093e-28
3.70995e-29
6.88091e-30
1.2577e-30
2.26585e-31
4.02419e-32
7.04666e-33
1.21678e-33
2.07218e-34
3.48089e-35
5.7685e-36
9.43199e-37
1.52184e-37
2.42335e-38
3.80889e-39
5.90977e-40
9.05284e-41
1.36928e-41
2.04524e-42
3.01712e-43
4.39618e-44
6.32914e-45
9.00027e-46
1.26882e-46
1.76222e-47
2.53776e-48
3.44866e-49
7.43096e-50
7.43096e-50
1.00188
0.998116
1.02692
1.06094
1.08284
1.08961
1.083
1.06128
1.01978
0.955987
0.872177
0.774447
0.670184
0.566042
0.467022
0.376412
0.296113
0.227026
0.16932
0.122608
0.086044
0.0584339
0.0383593
0.0243238
0.0148909
0.0087998
0.00502058
0.00276644
0.00147299
0.000758331
0.000377738
0.000182182
8.51364e-05
3.85773e-05
1.69615e-05
7.24121e-06
3.00376e-06
1.21145e-06
4.75346e-07
1.81566e-07
6.75516e-08
2.44936e-08
8.66008e-09
2.98721e-09
1.00577e-09
3.30698e-10
1.06234e-10
3.33566e-11
1.02418e-11
3.07627e-12
9.04267e-13
2.60231e-13
7.33452e-14
2.02529e-14
5.48096e-15
1.45419e-15
3.78373e-16
9.65803e-17
2.4191e-17
5.94763e-18
1.43575e-18
3.40388e-19
7.92768e-20
1.81428e-20
4.08088e-21
9.02402e-22
1.9622e-22
4.19641e-23
8.8288e-24
1.8277e-24
3.72372e-25
7.46798e-26
1.47458e-26
2.86719e-27
5.4909e-28
1.03588e-28
1.92543e-29
3.52672e-30
6.36668e-31
1.13298e-31
1.98777e-32
3.43882e-33
5.86703e-34
9.87313e-35
1.639e-35
2.68444e-36
4.33844e-37
6.91955e-38
1.08928e-38
1.69268e-39
2.5968e-40
3.93348e-41
5.88367e-42
8.69144e-43
1.26829e-43
1.82783e-44
2.60743e-45
3.66514e-46
5.22839e-47
7.12324e-48
1.25627e-48
1.25627e-48
1.01573
0.984275
0.963682
0.958793
0.961982
0.966549
0.968576
0.964938
0.952087
0.926762
0.887234
0.833812
0.768469
0.694099
0.613877
0.530915
0.448168
0.368416
0.294208
0.227692
0.170411
0.123127
0.085775
0.0575692
0.037211
0.0231626
0.0138884
0.00802558
0.00447238
0.00240526
0.00124939
0.000627338
0.000304747
0.000143341
6.53344e-05
2.88798e-05
1.23896e-05
5.16228e-06
2.0905e-06
8.23333e-07
3.15567e-07
1.17778e-07
4.283e-08
1.5184e-08
5.25065e-09
1.77195e-09
5.83871e-10
1.87938e-10
5.91212e-11
1.81841e-11
5.47073e-12
1.61056e-12
4.6415e-13
1.30994e-13
3.6217e-14
9.81284e-15
2.60641e-15
6.78888e-16
1.73459e-16
4.34881e-17
1.07015e-17
2.5855e-18
6.13463e-19
1.42985e-19
3.27462e-20
7.37073e-21
1.63095e-21
3.54858e-22
7.59365e-23
1.59853e-23
3.31103e-24
6.74935e-25
1.35428e-25
2.67536e-26
5.20441e-27
9.97131e-28
1.88193e-28
3.49946e-29
6.41237e-30
1.15805e-30
2.06156e-31
3.61823e-32
6.26168e-33
1.06867e-33
1.79897e-34
2.98734e-35
4.89431e-36
7.91226e-37
1.26232e-37
1.98771e-38
3.08963e-39
4.74114e-40
7.18349e-41
1.07476e-41
1.58812e-42
2.31756e-43
3.34331e-44
4.75769e-45
6.75603e-46
9.29525e-47
1.39175e-47
1.39175e-47
1.02404
0.975962
0.919375
0.876614
0.848694
0.83167
0.821356
0.814188
0.806974
0.79679
0.781171
0.758316
0.727127
0.687111
0.63831
0.581317
0.517391
0.448557
0.377567
0.307641
0.242024
0.183473
0.133836
0.0938619
0.0632682
0.0409925
0.02554
0.0153112
0.00883901
0.00491789
0.00263955
0.00136791
0.000685109
0.000331916
0.000155683
7.07563e-05
3.11853e-05
1.33393e-05
5.54156e-06
2.23748e-06
8.78628e-07
3.35778e-07
1.24959e-07
4.53115e-08
1.60184e-08
5.52379e-09
1.85902e-09
6.10913e-10
1.96122e-10
6.15354e-11
1.88784e-11
5.66541e-12
1.66379e-12
4.78338e-13
1.34681e-13
3.71506e-14
1.00431e-14
2.6617e-15
6.91794e-16
1.76384e-16
4.41302e-17
1.08377e-17
2.61323e-18
6.18848e-19
1.43968e-19
3.29107e-20
7.39442e-21
1.63332e-21
3.54761e-22
7.5788e-23
1.59279e-23
3.29382e-24
6.70372e-25
1.34305e-25
2.64921e-26
5.14595e-27
9.84513e-28
1.8555e-28
3.44558e-29
6.30514e-30
1.13719e-30
2.02182e-31
3.544e-32
6.12565e-33
1.0442e-33
1.75569e-34
2.9121e-35
4.76564e-36
7.69571e-37
1.22644e-37
1.92916e-38
2.9955e-39
4.59201e-40
6.95054e-41
1.0389e-41
1.5335e-42
2.23614e-43
3.21809e-44
4.58665e-45
6.36585e-46
8.90116e-47
8.90116e-47
1.11553
0.88447
0.754944
0.682433
0.641432
0.618369
0.605762
0.599212
0.595857
0.593568
0.59057
0.58525
0.576044
0.561391
0.539795
0.510052
0.471589
0.424812
0.371311
0.313775
0.255599
0.20026
0.150692
0.108815
0.0753864
0.0501201
0.0319958
0.0196282
0.0115819
0.00658001
0.003603
0.00190344
0.000971142
0.000478981
0.000228586
0.000105648
4.73289e-05
2.05681e-05
8.67767e-06
3.5569e-06
1.41744e-06
5.49534e-07
2.07404e-07
7.625e-08
2.73221e-08
9.54735e-09
3.2552e-09
1.08348e-09
3.52226e-10
1.11889e-10
3.47466e-11
1.05532e-11
3.13602e-12
9.12169e-13
2.59799e-13
7.24811e-14
1.98149e-14
5.30994e-15
1.39527e-15
3.59615e-16
9.09411e-17
2.25713e-17
5.49982e-18
1.31601e-18
3.09315e-19
7.14316e-20
1.62119e-20
3.61693e-21
7.93428e-22
1.71174e-22
3.63265e-23
7.58511e-24
1.55862e-24
3.15247e-25
6.27731e-26
1.23082e-26
2.3768e-27
4.52112e-28
8.47291e-29
1.56468e-29
2.84771e-30
5.10875e-31
9.03547e-32
1.57569e-32
2.7098e-33
4.59638e-34
7.69072e-35
1.26956e-35
2.0679e-36
3.32395e-37
5.27333e-38
8.258e-39
1.27667e-39
1.9487e-40
2.93715e-41
4.37172e-42
6.42695e-43
9.32522e-44
1.33788e-44
1.86912e-45
2.59053e-46
2.59053e-46
-0.101676
0.101676
0.204148
0.258519
0.290045
0.310494
0.325428
0.337518
0.348033
0.357507
0.366005
0.373191
0.378297
0.380107
0.37705
0.367466
0.350034
0.324243
0.290736
0.251375
0.208952
0.166638
0.127339
0.0931909
0.065318
0.0438695
0.028256
0.0174707
0.0103809
0.00593439
0.00326763
0.00173496
0.000889224
0.000440401
0.000210973
9.78479e-05
4.39753e-05
1.91675e-05
8.109e-06
3.3323e-06
1.3311e-06
5.17209e-07
1.9561e-07
7.20544e-08
2.5866e-08
9.05413e-09
3.09204e-09
1.03075e-09
3.3557e-10
1.06744e-10
3.31917e-11
1.00933e-11
3.00287e-12
8.74407e-13
2.49306e-13
6.96236e-14
1.9052e-14
5.11013e-15
1.34394e-15
3.46672e-16
8.77379e-17
2.17928e-17
5.31399e-18
1.27243e-18
2.99272e-19
6.91566e-20
1.57053e-20
3.50595e-21
7.6952e-22
1.66106e-22
3.52696e-23
7.36812e-24
1.51477e-24
3.0652e-25
6.10627e-26
1.1978e-26
2.314e-27
4.40344e-28
8.25557e-29
1.52511e-29
2.7767e-30
4.9831e-31
8.8162e-32
1.53795e-32
2.64572e-33
4.48905e-34
7.51334e-35
1.24063e-35
2.02132e-36
3.24995e-37
5.15725e-38
8.07821e-39
1.24917e-39
1.90716e-40
2.87519e-41
4.28042e-42
6.29404e-43
9.13422e-44
1.31073e-44
1.83154e-45
2.53898e-46
2.53898e-46
-0.00930642
0.00930642
0.0399917
0.0692744
0.0943671
0.11558
0.133835
0.149977
0.164651
0.178305
0.191171
0.20319
0.213901
0.222374
0.227282
0.227154
0.220772
0.207599
0.188063
0.163584
0.136311
0.108658
0.0828054
0.0603265
0.0420361
0.0280386
0.0179209
0.0109886
0.00647211
0.00366611
0.00199966
0.0010515
0.000533657
0.000261684
0.000124107
5.69828e-05
2.53519e-05
1.09388e-05
4.58122e-06
1.86369e-06
7.37002e-07
2.83509e-07
1.06158e-07
3.8717e-08
1.37617e-08
4.7699e-09
1.61307e-09
5.32509e-10
1.71691e-10
5.40904e-11
1.66588e-11
5.01773e-12
1.47874e-12
4.26555e-13
1.20482e-13
3.33346e-14
9.03756e-15
2.4018e-15
6.25892e-16
1.59984e-16
4.01236e-17
9.87649e-18
2.38676e-18
5.66418e-19
1.3204e-19
3.02433e-20
6.80791e-21
1.50649e-21
3.27786e-22
7.01431e-23
1.47654e-23
3.05819e-24
6.23352e-25
1.25067e-25
2.47043e-26
4.80517e-27
9.20518e-28
1.73708e-28
3.22961e-29
5.91692e-30
1.06839e-30
1.9016e-31
3.33683e-32
5.77355e-33
9.85164e-34
1.65804e-34
2.75273e-35
4.50893e-36
7.28761e-37
1.1624e-37
1.82995e-38
2.84375e-39
4.36279e-40
6.60862e-41
9.88521e-42
1.46019e-42
2.13073e-43
3.06845e-44
4.37656e-45
6.0779e-46
8.51026e-47
8.51026e-47
-0.000483301
0.000483301
0.00628304
0.0148256
0.0246954
0.0352066
0.0460632
0.0571414
0.0683828
0.0797267
0.0910311
0.101967
0.111926
0.120007
0.125131
0.126288
0.122833
0.114724
0.102616
0.0877393
0.0716377
0.0558333
0.0415449
0.0295324
0.020072
0.0130571
0.00813938
0.00486838
0.00279769
0.00154668
0.000823639
0.000422993
0.000209743
0.000100524
4.6615e-05
2.09349e-05
9.11381e-06
3.84932e-06
1.57861e-06
6.29071e-07
2.43768e-07
9.19178e-08
3.37484e-08
1.20727e-08
4.21023e-09
1.43221e-09
4.7548e-10
1.54138e-10
4.88143e-11
1.51095e-11
4.5731e-12
1.35399e-12
3.92324e-13
1.11293e-13
3.0921e-14
8.41698e-15
2.24559e-15
5.87384e-16
1.50686e-16
3.79247e-17
9.36696e-18
2.27107e-18
5.4068e-19
1.26429e-19
2.90446e-20
6.55702e-21
1.45505e-21
3.17455e-22
6.81117e-23
1.43745e-23
2.98465e-24
6.09833e-25
1.22641e-25
2.42805e-26
4.73322e-27
9.08691e-28
1.71836e-28
3.20132e-29
5.87674e-30
1.06318e-30
1.89589e-31
3.33292e-32
5.77707e-33
9.87478e-34
1.66475e-34
2.76843e-35
4.54196e-36
7.35252e-37
1.17455e-37
1.85184e-38
2.88196e-39
4.42771e-40
6.71631e-41
1.00598e-41
1.4881e-42
2.17388e-43
3.13926e-44
4.47169e-45
6.35696e-46
8.75346e-47
1.31397e-47
1.31397e-47
4.08982e-05
-4.08982e-05
0.000817202
0.0028395
0.00606868
0.0105043
0.0161165
0.0228159
0.0304124
0.03858
0.046835
0.054539
0.0609474
0.0653159
0.0670485
0.0658446
0.0617919
0.0553684
0.047347
0.0386324
0.0300822
0.0223647
0.0158875
0.0107949
0.00702172
0.00437738
0.00261857
0.00150505
0.000832212
0.000443255
0.000227685
0.000112921
5.41304e-05
2.51063e-05
1.12775e-05
4.91055e-06
2.07445e-06
8.50904e-07
3.39154e-07
1.31451e-07
4.95766e-08
1.82063e-08
6.5142e-09
2.27224e-09
7.7311e-10
2.56718e-10
8.32373e-11
2.63658e-11
8.16253e-12
2.47096e-12
7.31728e-13
2.12058e-13
6.0166e-14
1.67188e-14
4.55173e-15
1.21455e-15
3.17739e-16
8.15236e-17
2.05206e-17
5.06898e-18
1.22915e-18
2.92661e-19
6.84414e-20
1.57247e-20
3.55031e-21
7.87911e-22
1.71918e-22
3.68889e-23
7.78578e-24
1.61671e-24
3.30355e-25
6.64407e-26
1.31547e-26
2.56451e-27
4.92363e-28
9.31117e-29
1.73476e-29
3.18465e-30
5.76167e-31
1.02747e-31
1.80631e-32
3.13102e-33
5.35201e-34
9.02291e-35
1.50051e-35
2.46181e-36
3.98522e-37
6.36634e-38
1.00375e-38
1.56211e-39
2.39995e-40
3.64043e-41
5.45275e-42
8.06551e-43
1.17846e-43
1.70048e-44
2.42871e-45
3.41787e-46
4.88218e-47
6.65773e-48
1.17815e-48
1.17815e-48
2.22133e-05
-2.22133e-05
0.000115476
0.000805323
0.00239167
0.00512623
0.0091366
0.0143482
0.0204208
0.0267683
0.0326569
0.0373475
0.0402446
0.0410138
0.0396386
0.0364048
0.0318221
0.0265074
0.0210638
0.0159832
0.0115921
0.00804414
0.00534725
0.00340834
0.00208514
0.00122573
0.000693147
0.00037752
0.000198262
0.00010051
4.92388e-05
2.33333e-05
1.07061e-05
4.76057e-06
2.05322e-06
8.59627e-07
3.49633e-07
1.38247e-07
5.31791e-08
1.99135e-08
7.26348e-09
2.58219e-09
8.95208e-10
3.02819e-10
9.99976e-11
3.22519e-11
1.01645e-11
3.13167e-12
9.43658e-13
2.78215e-13
8.02873e-14
2.26872e-14
6.27977e-15
1.70329e-15
4.52861e-16
1.18063e-16
3.01911e-17
7.5751e-18
1.8654e-18
4.5098e-19
1.07069e-19
2.49691e-20
5.72129e-21
1.28838e-21
2.85204e-22
6.20775e-23
1.32886e-23
2.79824e-24
5.79756e-25
1.18209e-25
2.37241e-26
4.68757e-27
9.12027e-28
1.74763e-28
3.29876e-29
6.13464e-30
1.12419e-30
2.03035e-31
3.61457e-32
6.34401e-33
1.09789e-33
1.87373e-34
3.15408e-35
5.2374e-36
8.5802e-37
1.387e-37
2.21263e-38
3.48379e-39
5.41453e-40
8.30783e-41
1.25859e-41
1.88279e-42
2.78162e-43
4.05889e-44
5.85174e-45
8.33266e-46
1.17626e-46
1.63573e-47
2.35903e-48
3.20883e-49
6.94102e-50
6.94102e-50
2.22133e-05
-2.22133e-05
0.000115476
0.000805323
0.00239167
0.00512623
0.0091366
0.0143482
0.0204208
0.0267683
0.0326569
0.0373475
0.0402446
0.0410138
0.0396386
0.0364048
0.0318221
0.0265074
0.0210638
0.0159832
0.0115921
0.00804414
0.00534725
0.00340834
0.00208514
0.00122573
0.000693147
0.00037752
0.000198262
0.00010051
4.92388e-05
2.33333e-05
1.07061e-05
4.76057e-06
2.05322e-06
8.59627e-07
3.49633e-07
1.38247e-07
5.31791e-08
1.99135e-08
7.26348e-09
2.58219e-09
8.95208e-10
3.02819e-10
9.99976e-11
3.22519e-11
1.01645e-11
3.13167e-12
9.43658e-13
2.78215e-13
8.02873e-14
2.26872e-14
6.27977e-15
1.70329e-15
4.52861e-16
1.18063e-16
3.01911e-17
7.5751e-18
1.8654e-18
4.5098e-19
1.07069e-19
2.49691e-20
5.72129e-21
1.28838e-21
2.85204e-22
6.20775e-23
1.32886e-23
2.79824e-24
5.79756e-25
1.18209e-25
2.37241e-26
4.68757e-27
9.12027e-28
1.74763e-28
3.29876e-29
6.13464e-30
1.12419e-30
2.03035e-31
3.61457e-32
6.34401e-33
1.09789e-33
1.87373e-34
3.15408e-35
5.2374e-36
8.5802e-37
1.387e-37
2.21263e-38
3.48379e-39
5.41453e-40
8.30783e-41
1.25859e-41
1.88279e-42
2.78162e-43
4.05889e-44
5.85174e-45
8.33266e-46
1.17626e-46
1.63573e-47
2.35903e-48
3.20883e-49
6.94102e-50
6.94102e-50
