# vtk DataFile Version 2.0
FlowField
ASCII
DATASET STRUCTURED_GRID
DIMENSIONS 102 13 1 
POINTS 1326 double
0 0 0
0.3 0 0
0.6 0 0
0.9 0 0
1.2 0 0
1.5 0 0
1.8 0 0
2.1 0 0
2.4 0 0
2.7 0 0
3 0 0
3.3 0 0
3.6 0 0
3.9 0 0
4.2 0 0
4.5 0 0
4.8 0 0
5.1 0 0
5.4 0 0
5.7 0 0
6 0 0
6.3 0 0
6.6 0 0
6.9 0 0
7.2 0 0
7.5 0 0
7.8 0 0
8.1 0 0
8.4 0 0
8.7 0 0
9 0 0
9.3 0 0
9.6 0 0
9.9 0 0
10.2 0 0
10.5 0 0
10.8 0 0
11.1 0 0
11.4 0 0
11.7 0 0
12 0 0
12.3 0 0
12.6 0 0
12.9 0 0
13.2 0 0
13.5 0 0
13.8 0 0
14.1 0 0
14.4 0 0
14.7 0 0
15 0 0
15.3 0 0
15.6 0 0
15.9 0 0
16.2 0 0
16.5 0 0
16.8 0 0
17.1 0 0
17.4 0 0
17.7 0 0
18 0 0
18.3 0 0
18.6 0 0
18.9 0 0
19.2 0 0
19.5 0 0
19.8 0 0
20.1 0 0
20.4 0 0
20.7 0 0
21 0 0
21.3 0 0
21.6 0 0
21.9 0 0
22.2 0 0
22.5 0 0
22.8 0 0
23.1 0 0
23.4 0 0
23.7 0 0
24 0 0
24.3 0 0
24.6 0 0
24.9 0 0
25.2 0 0
25.5 0 0
25.8 0 0
26.1 0 0
26.4 0 0
26.7 0 0
27 0 0
27.3 0 0
27.6 0 0
27.9 0 0
28.2 0 0
28.5 0 0
28.8 0 0
29.1 0 0
29.4 0 0
29.7 0 0
30 0 0
30.3 0 0
0 0.1 0
0.3 0.1 0
0.6 0.1 0
0.9 0.1 0
1.2 0.1 0
1.5 0.1 0
1.8 0.1 0
2.1 0.1 0
2.4 0.1 0
2.7 0.1 0
3 0.1 0
3.3 0.1 0
3.6 0.1 0
3.9 0.1 0
4.2 0.1 0
4.5 0.1 0
4.8 0.1 0
5.1 0.1 0
5.4 0.1 0
5.7 0.1 0
6 0.1 0
6.3 0.1 0
6.6 0.1 0
6.9 0.1 0
7.2 0.1 0
7.5 0.1 0
7.8 0.1 0
8.1 0.1 0
8.4 0.1 0
8.7 0.1 0
9 0.1 0
9.3 0.1 0
9.6 0.1 0
9.9 0.1 0
10.2 0.1 0
10.5 0.1 0
10.8 0.1 0
11.1 0.1 0
11.4 0.1 0
11.7 0.1 0
12 0.1 0
12.3 0.1 0
12.6 0.1 0
12.9 0.1 0
13.2 0.1 0
13.5 0.1 0
13.8 0.1 0
14.1 0.1 0
14.4 0.1 0
14.7 0.1 0
15 0.1 0
15.3 0.1 0
15.6 0.1 0
15.9 0.1 0
16.2 0.1 0
16.5 0.1 0
16.8 0.1 0
17.1 0.1 0
17.4 0.1 0
17.7 0.1 0
18 0.1 0
18.3 0.1 0
18.6 0.1 0
18.9 0.1 0
19.2 0.1 0
19.5 0.1 0
19.8 0.1 0
20.1 0.1 0
20.4 0.1 0
20.7 0.1 0
21 0.1 0
21.3 0.1 0
21.6 0.1 0
21.9 0.1 0
22.2 0.1 0
22.5 0.1 0
22.8 0.1 0
23.1 0.1 0
23.4 0.1 0
23.7 0.1 0
24 0.1 0
24.3 0.1 0
24.6 0.1 0
24.9 0.1 0
25.2 0.1 0
25.5 0.1 0
25.8 0.1 0
26.1 0.1 0
26.4 0.1 0
26.7 0.1 0
27 0.1 0
27.3 0.1 0
27.6 0.1 0
27.9 0.1 0
28.2 0.1 0
28.5 0.1 0
28.8 0.1 0
29.1 0.1 0
29.4 0.1 0
29.7 0.1 0
30 0.1 0
30.3 0.1 0
0 0.2 0
0.3 0.2 0
0.6 0.2 0
0.9 0.2 0
1.2 0.2 0
1.5 0.2 0
1.8 0.2 0
2.1 0.2 0
2.4 0.2 0
2.7 0.2 0
3 0.2 0
3.3 0.2 0
3.6 0.2 0
3.9 0.2 0
4.2 0.2 0
4.5 0.2 0
4.8 0.2 0
5.1 0.2 0
5.4 0.2 0
5.7 0.2 0
6 0.2 0
6.3 0.2 0
6.6 0.2 0
6.9 0.2 0
7.2 0.2 0
7.5 0.2 0
7.8 0.2 0
8.1 0.2 0
8.4 0.2 0
8.7 0.2 0
9 0.2 0
9.3 0.2 0
9.6 0.2 0
9.9 0.2 0
10.2 0.2 0
10.5 0.2 0
10.8 0.2 0
11.1 0.2 0
11.4 0.2 0
11.7 0.2 0
12 0.2 0
12.3 0.2 0
12.6 0.2 0
12.9 0.2 0
13.2 0.2 0
13.5 0.2 0
13.8 0.2 0
14.1 0.2 0
14.4 0.2 0
14.7 0.2 0
15 0.2 0
15.3 0.2 0
15.6 0.2 0
15.9 0.2 0
16.2 0.2 0
16.5 0.2 0
16.8 0.2 0
17.1 0.2 0
17.4 0.2 0
17.7 0.2 0
18 0.2 0
18.3 0.2 0
18.6 0.2 0
18.9 0.2 0
19.2 0.2 0
19.5 0.2 0
19.8 0.2 0
20.1 0.2 0
20.4 0.2 0
20.7 0.2 0
21 0.2 0
21.3 0.2 0
21.6 0.2 0
21.9 0.2 0
22.2 0.2 0
22.5 0.2 0
22.8 0.2 0
23.1 0.2 0
23.4 0.2 0
23.7 0.2 0
24 0.2 0
24.3 0.2 0
24.6 0.2 0
24.9 0.2 0
25.2 0.2 0
25.5 0.2 0
25.8 0.2 0
26.1 0.2 0
26.4 0.2 0
26.7 0.2 0
27 0.2 0
27.3 0.2 0
27.6 0.2 0
27.9 0.2 0
28.2 0.2 0
28.5 0.2 0
28.8 0.2 0
29.1 0.2 0
29.4 0.2 0
29.7 0.2 0
30 0.2 0
30.3 0.2 0
0 0.3 0
0.3 0.3 0
0.6 0.3 0
0.9 0.3 0
1.2 0.3 0
1.5 0.3 0
1.8 0.3 0
2.1 0.3 0
2.4 0.3 0
2.7 0.3 0
3 0.3 0
3.3 0.3 0
3.6 0.3 0
3.9 0.3 0
4.2 0.3 0
4.5 0.3 0
4.8 0.3 0
5.1 0.3 0
5.4 0.3 0
5.7 0.3 0
6 0.3 0
6.3 0.3 0
6.6 0.3 0
6.9 0.3 0
7.2 0.3 0
7.5 0.3 0
7.8 0.3 0
8.1 0.3 0
8.4 0.3 0
8.7 0.3 0
9 0.3 0
9.3 0.3 0
9.6 0.3 0
9.9 0.3 0
10.2 0.3 0
10.5 0.3 0
10.8 0.3 0
11.1 0.3 0
11.4 0.3 0
11.7 0.3 0
12 0.3 0
12.3 0.3 0
12.6 0.3 0
12.9 0.3 0
13.2 0.3 0
13.5 0.3 0
13.8 0.3 0
14.1 0.3 0
14.4 0.3 0
14.7 0.3 0
15 0.3 0
15.3 0.3 0
15.6 0.3 0
15.9 0.3 0
16.2 0.3 0
16.5 0.3 0
16.8 0.3 0
17.1 0.3 0
17.4 0.3 0
17.7 0.3 0
18 0.3 0
18.3 0.3 0
18.6 0.3 0
18.9 0.3 0
19.2 0.3 0
19.5 0.3 0
19.8 0.3 0
20.1 0.3 0
20.4 0.3 0
20.7 0.3 0
21 0.3 0
21.3 0.3 0
21.6 0.3 0
21.9 0.3 0
22.2 0.3 0
22.5 0.3 0
22.8 0.3 0
23.1 0.3 0
23.4 0.3 0
23.7 0.3 0
24 0.3 0
24.3 0.3 0
24.6 0.3 0
24.9 0.3 0
25.2 0.3 0
25.5 0.3 0
25.8 0.3 0
26.1 0.3 0
26.4 0.3 0
26.7 0.3 0
27 0.3 0
27.3 0.3 0
27.6 0.3 0
27.9 0.3 0
28.2 0.3 0
28.5 0.3 0
28.8 0.3 0
29.1 0.3 0
29.4 0.3 0
29.7 0.3 0
30 0.3 0
30.3 0.3 0
0 0.4 0
0.3 0.4 0
0.6 0.4 0
0.9 0.4 0
1.2 0.4 0
1.5 0.4 0
1.8 0.4 0
2.1 0.4 0
2.4 0.4 0
2.7 0.4 0
3 0.4 0
3.3 0.4 0
3.6 0.4 0
3.9 0.4 0
4.2 0.4 0
4.5 0.4 0
4.8 0.4 0
5.1 0.4 0
5.4 0.4 0
5.7 0.4 0
6 0.4 0
6.3 0.4 0
6.6 0.4 0
6.9 0.4 0
7.2 0.4 0
7.5 0.4 0
7.8 0.4 0
8.1 0.4 0
8.4 0.4 0
8.7 0.4 0
9 0.4 0
9.3 0.4 0
9.6 0.4 0
9.9 0.4 0
10.2 0.4 0
10.5 0.4 0
10.8 0.4 0
11.1 0.4 0
11.4 0.4 0
11.7 0.4 0
12 0.4 0
12.3 0.4 0
12.6 0.4 0
12.9 0.4 0
13.2 0.4 0
13.5 0.4 0
13.8 0.4 0
14.1 0.4 0
14.4 0.4 0
14.7 0.4 0
15 0.4 0
15.3 0.4 0
15.6 0.4 0
15.9 0.4 0
16.2 0.4 0
16.5 0.4 0
16.8 0.4 0
17.1 0.4 0
17.4 0.4 0
17.7 0.4 0
18 0.4 0
18.3 0.4 0
18.6 0.4 0
18.9 0.4 0
19.2 0.4 0
19.5 0.4 0
19.8 0.4 0
20.1 0.4 0
20.4 0.4 0
20.7 0.4 0
21 0.4 0
21.3 0.4 0
21.6 0.4 0
21.9 0.4 0
22.2 0.4 0
22.5 0.4 0
22.8 0.4 0
23.1 0.4 0
23.4 0.4 0
23.7 0.4 0
24 0.4 0
24.3 0.4 0
24.6 0.4 0
24.9 0.4 0
25.2 0.4 0
25.5 0.4 0
25.8 0.4 0
26.1 0.4 0
26.4 0.4 0
26.7 0.4 0
27 0.4 0
27.3 0.4 0
27.6 0.4 0
27.9 0.4 0
28.2 0.4 0
28.5 0.4 0
28.8 0.4 0
29.1 0.4 0
29.4 0.4 0
29.7 0.4 0
30 0.4 0
30.3 0.4 0
0 0.5 0
0.3 0.5 0
0.6 0.5 0
0.9 0.5 0
1.2 0.5 0
1.5 0.5 0
1.8 0.5 0
2.1 0.5 0
2.4 0.5 0
2.7 0.5 0
3 0.5 0
3.3 0.5 0
3.6 0.5 0
3.9 0.5 0
4.2 0.5 0
4.5 0.5 0
4.8 0.5 0
5.1 0.5 0
5.4 0.5 0
5.7 0.5 0
6 0.5 0
6.3 0.5 0
6.6 0.5 0
6.9 0.5 0
7.2 0.5 0
7.5 0.5 0
7.8 0.5 0
8.1 0.5 0
8.4 0.5 0
8.7 0.5 0
9 0.5 0
9.3 0.5 0
9.6 0.5 0
9.9 0.5 0
10.2 0.5 0
10.5 0.5 0
10.8 0.5 0
11.1 0.5 0
11.4 0.5 0
11.7 0.5 0
12 0.5 0
12.3 0.5 0
12.6 0.5 0
12.9 0.5 0
13.2 0.5 0
13.5 0.5 0
13.8 0.5 0
14.1 0.5 0
14.4 0.5 0
14.7 0.5 0
15 0.5 0
15.3 0.5 0
15.6 0.5 0
15.9 0.5 0
16.2 0.5 0
16.5 0.5 0
16.8 0.5 0
17.1 0.5 0
17.4 0.5 0
17.7 0.5 0
18 0.5 0
18.3 0.5 0
18.6 0.5 0
18.9 0.5 0
19.2 0.5 0
19.5 0.5 0
19.8 0.5 0
20.1 0.5 0
20.4 0.5 0
20.7 0.5 0
21 0.5 0
21.3 0.5 0
21.6 0.5 0
21.9 0.5 0
22.2 0.5 0
22.5 0.5 0
22.8 0.5 0
23.1 0.5 0
23.4 0.5 0
23.7 0.5 0
24 0.5 0
24.3 0.5 0
24.6 0.5 0
24.9 0.5 0
25.2 0.5 0
25.5 0.5 0
25.8 0.5 0
26.1 0.5 0
26.4 0.5 0
26.7 0.5 0
27 0.5 0
27.3 0.5 0
27.6 0.5 0
27.9 0.5 0
28.2 0.5 0
28.5 0.5 0
28.8 0.5 0
29.1 0.5 0
29.4 0.5 0
29.7 0.5 0
30 0.5 0
30.3 0.5 0
0 0.6 0
0.3 0.6 0
0.6 0.6 0
0.9 0.6 0
1.2 0.6 0
1.5 0.6 0
1.8 0.6 0
2.1 0.6 0
2.4 0.6 0
2.7 0.6 0
3 0.6 0
3.3 0.6 0
3.6 0.6 0
3.9 0.6 0
4.2 0.6 0
4.5 0.6 0
4.8 0.6 0
5.1 0.6 0
5.4 0.6 0
5.7 0.6 0
6 0.6 0
6.3 0.6 0
6.6 0.6 0
6.9 0.6 0
7.2 0.6 0
7.5 0.6 0
7.8 0.6 0
8.1 0.6 0
8.4 0.6 0
8.7 0.6 0
9 0.6 0
9.3 0.6 0
9.6 0.6 0
9.9 0.6 0
10.2 0.6 0
10.5 0.6 0
10.8 0.6 0
11.1 0.6 0
11.4 0.6 0
11.7 0.6 0
12 0.6 0
12.3 0.6 0
12.6 0.6 0
12.9 0.6 0
13.2 0.6 0
13.5 0.6 0
13.8 0.6 0
14.1 0.6 0
14.4 0.6 0
14.7 0.6 0
15 0.6 0
15.3 0.6 0
15.6 0.6 0
15.9 0.6 0
16.2 0.6 0
16.5 0.6 0
16.8 0.6 0
17.1 0.6 0
17.4 0.6 0
17.7 0.6 0
18 0.6 0
18.3 0.6 0
18.6 0.6 0
18.9 0.6 0
19.2 0.6 0
19.5 0.6 0
19.8 0.6 0
20.1 0.6 0
20.4 0.6 0
20.7 0.6 0
21 0.6 0
21.3 0.6 0
21.6 0.6 0
21.9 0.6 0
22.2 0.6 0
22.5 0.6 0
22.8 0.6 0
23.1 0.6 0
23.4 0.6 0
23.7 0.6 0
24 0.6 0
24.3 0.6 0
24.6 0.6 0
24.9 0.6 0
25.2 0.6 0
25.5 0.6 0
25.8 0.6 0
26.1 0.6 0
26.4 0.6 0
26.7 0.6 0
27 0.6 0
27.3 0.6 0
27.6 0.6 0
27.9 0.6 0
28.2 0.6 0
28.5 0.6 0
28.8 0.6 0
29.1 0.6 0
29.4 0.6 0
29.7 0.6 0
30 0.6 0
30.3 0.6 0
0 0.7 0
0.3 0.7 0
0.6 0.7 0
0.9 0.7 0
1.2 0.7 0
1.5 0.7 0
1.8 0.7 0
2.1 0.7 0
2.4 0.7 0
2.7 0.7 0
3 0.7 0
3.3 0.7 0
3.6 0.7 0
3.9 0.7 0
4.2 0.7 0
4.5 0.7 0
4.8 0.7 0
5.1 0.7 0
5.4 0.7 0
5.7 0.7 0
6 0.7 0
6.3 0.7 0
6.6 0.7 0
6.9 0.7 0
7.2 0.7 0
7.5 0.7 0
7.8 0.7 0
8.1 0.7 0
8.4 0.7 0
8.7 0.7 0
9 0.7 0
9.3 0.7 0
9.6 0.7 0
9.9 0.7 0
10.2 0.7 0
10.5 0.7 0
10.8 0.7 0
11.1 0.7 0
11.4 0.7 0
11.7 0.7 0
12 0.7 0
12.3 0.7 0
12.6 0.7 0
12.9 0.7 0
13.2 0.7 0
13.5 0.7 0
13.8 0.7 0
14.1 0.7 0
14.4 0.7 0
14.7 0.7 0
15 0.7 0
15.3 0.7 0
15.6 0.7 0
15.9 0.7 0
16.2 0.7 0
16.5 0.7 0
16.8 0.7 0
17.1 0.7 0
17.4 0.7 0
17.7 0.7 0
18 0.7 0
18.3 0.7 0
18.6 0.7 0
18.9 0.7 0
19.2 0.7 0
19.5 0.7 0
19.8 0.7 0
20.1 0.7 0
20.4 0.7 0
20.7 0.7 0
21 0.7 0
21.3 0.7 0
21.6 0.7 0
21.9 0.7 0
22.2 0.7 0
22.5 0.7 0
22.8 0.7 0
23.1 0.7 0
23.4 0.7 0
23.7 0.7 0
24 0.7 0
24.3 0.7 0
24.6 0.7 0
24.9 0.7 0
25.2 0.7 0
25.5 0.7 0
25.8 0.7 0
26.1 0.7 0
26.4 0.7 0
26.7 0.7 0
27 0.7 0
27.3 0.7 0
27.6 0.7 0
27.9 0.7 0
28.2 0.7 0
28.5 0.7 0
28.8 0.7 0
29.1 0.7 0
29.4 0.7 0
29.7 0.7 0
30 0.7 0
30.3 0.7 0
0 0.8 0
0.3 0.8 0
0.6 0.8 0
0.9 0.8 0
1.2 0.8 0
1.5 0.8 0
1.8 0.8 0
2.1 0.8 0
2.4 0.8 0
2.7 0.8 0
3 0.8 0
3.3 0.8 0
3.6 0.8 0
3.9 0.8 0
4.2 0.8 0
4.5 0.8 0
4.8 0.8 0
5.1 0.8 0
5.4 0.8 0
5.7 0.8 0
6 0.8 0
6.3 0.8 0
6.6 0.8 0
6.9 0.8 0
7.2 0.8 0
7.5 0.8 0
7.8 0.8 0
8.1 0.8 0
8.4 0.8 0
8.7 0.8 0
9 0.8 0
9.3 0.8 0
9.6 0.8 0
9.9 0.8 0
10.2 0.8 0
10.5 0.8 0
10.8 0.8 0
11.1 0.8 0
11.4 0.8 0
11.7 0.8 0
12 0.8 0
12.3 0.8 0
12.6 0.8 0
12.9 0.8 0
13.2 0.8 0
13.5 0.8 0
13.8 0.8 0
14.1 0.8 0
14.4 0.8 0
14.7 0.8 0
15 0.8 0
15.3 0.8 0
15.6 0.8 0
15.9 0.8 0
16.2 0.8 0
16.5 0.8 0
16.8 0.8 0
17.1 0.8 0
17.4 0.8 0
17.7 0.8 0
18 0.8 0
18.3 0.8 0
18.6 0.8 0
18.9 0.8 0
19.2 0.8 0
19.5 0.8 0
19.8 0.8 0
20.1 0.8 0
20.4 0.8 0
20.7 0.8 0
21 0.8 0
21.3 0.8 0
21.6 0.8 0
21.9 0.8 0
22.2 0.8 0
22.5 0.8 0
22.8 0.8 0
23.1 0.8 0
23.4 0.8 0
23.7 0.8 0
24 0.8 0
24.3 0.8 0
24.6 0.8 0
24.9 0.8 0
25.2 0.8 0
25.5 0.8 0
25.8 0.8 0
26.1 0.8 0
26.4 0.8 0
26.7 0.8 0
27 0.8 0
27.3 0.8 0
27.6 0.8 0
27.9 0.8 0
28.2 0.8 0
28.5 0.8 0
28.8 0.8 0
29.1 0.8 0
29.4 0.8 0
29.7 0.8 0
30 0.8 0
30.3 0.8 0
0 0.9 0
0.3 0.9 0
0.6 0.9 0
0.9 0.9 0
1.2 0.9 0
1.5 0.9 0
1.8 0.9 0
2.1 0.9 0
2.4 0.9 0
2.7 0.9 0
3 0.9 0
3.3 0.9 0
3.6 0.9 0
3.9 0.9 0
4.2 0.9 0
4.5 0.9 0
4.8 0.9 0
5.1 0.9 0
5.4 0.9 0
5.7 0.9 0
6 0.9 0
6.3 0.9 0
6.6 0.9 0
6.9 0.9 0
7.2 0.9 0
7.5 0.9 0
7.8 0.9 0
8.1 0.9 0
8.4 0.9 0
8.7 0.9 0
9 0.9 0
9.3 0.9 0
9.6 0.9 0
9.9 0.9 0
10.2 0.9 0
10.5 0.9 0
10.8 0.9 0
11.1 0.9 0
11.4 0.9 0
11.7 0.9 0
12 0.9 0
12.3 0.9 0
12.6 0.9 0
12.9 0.9 0
13.2 0.9 0
13.5 0.9 0
13.8 0.9 0
14.1 0.9 0
14.4 0.9 0
14.7 0.9 0
15 0.9 0
15.3 0.9 0
15.6 0.9 0
15.9 0.9 0
16.2 0.9 0
16.5 0.9 0
16.8 0.9 0
17.1 0.9 0
17.4 0.9 0
17.7 0.9 0
18 0.9 0
18.3 0.9 0
18.6 0.9 0
18.9 0.9 0
19.2 0.9 0
19.5 0.9 0
19.8 0.9 0
20.1 0.9 0
20.4 0.9 0
20.7 0.9 0
21 0.9 0
21.3 0.9 0
21.6 0.9 0
21.9 0.9 0
22.2 0.9 0
22.5 0.9 0
22.8 0.9 0
23.1 0.9 0
23.4 0.9 0
23.7 0.9 0
24 0.9 0
24.3 0.9 0
24.6 0.9 0
24.9 0.9 0
25.2 0.9 0
25.5 0.9 0
25.8 0.9 0
26.1 0.9 0
26.4 0.9 0
26.7 0.9 0
27 0.9 0
27.3 0.9 0
27.6 0.9 0
27.9 0.9 0
28.2 0.9 0
28.5 0.9 0
28.8 0.9 0
29.1 0.9 0
29.4 0.9 0
29.7 0.9 0
30 0.9 0
30.3 0.9 0
0 1 0
0.3 1 0
0.6 1 0
0.9 1 0
1.2 1 0
1.5 1 0
1.8 1 0
2.1 1 0
2.4 1 0
2.7 1 0
3 1 0
3.3 1 0
3.6 1 0
3.9 1 0
4.2 1 0
4.5 1 0
4.8 1 0
5.1 1 0
5.4 1 0
5.7 1 0
6 1 0
6.3 1 0
6.6 1 0
6.9 1 0
7.2 1 0
7.5 1 0
7.8 1 0
8.1 1 0
8.4 1 0
8.7 1 0
9 1 0
9.3 1 0
9.6 1 0
9.9 1 0
10.2 1 0
10.5 1 0
10.8 1 0
11.1 1 0
11.4 1 0
11.7 1 0
12 1 0
12.3 1 0
12.6 1 0
12.9 1 0
13.2 1 0
13.5 1 0
13.8 1 0
14.1 1 0
14.4 1 0
14.7 1 0
15 1 0
15.3 1 0
15.6 1 0
15.9 1 0
16.2 1 0
16.5 1 0
16.8 1 0
17.1 1 0
17.4 1 0
17.7 1 0
18 1 0
18.3 1 0
18.6 1 0
18.9 1 0
19.2 1 0
19.5 1 0
19.8 1 0
20.1 1 0
20.4 1 0
20.7 1 0
21 1 0
21.3 1 0
21.6 1 0
21.9 1 0
22.2 1 0
22.5 1 0
22.8 1 0
23.1 1 0
23.4 1 0
23.7 1 0
24 1 0
24.3 1 0
24.6 1 0
24.9 1 0
25.2 1 0
25.5 1 0
25.8 1 0
26.1 1 0
26.4 1 0
26.7 1 0
27 1 0
27.3 1 0
27.6 1 0
27.9 1 0
28.2 1 0
28.5 1 0
28.8 1 0
29.1 1 0
29.4 1 0
29.7 1 0
30 1 0
30.3 1 0
0 1.1 0
0.3 1.1 0
0.6 1.1 0
0.9 1.1 0
1.2 1.1 0
1.5 1.1 0
1.8 1.1 0
2.1 1.1 0
2.4 1.1 0
2.7 1.1 0
3 1.1 0
3.3 1.1 0
3.6 1.1 0
3.9 1.1 0
4.2 1.1 0
4.5 1.1 0
4.8 1.1 0
5.1 1.1 0
5.4 1.1 0
5.7 1.1 0
6 1.1 0
6.3 1.1 0
6.6 1.1 0
6.9 1.1 0
7.2 1.1 0
7.5 1.1 0
7.8 1.1 0
8.1 1.1 0
8.4 1.1 0
8.7 1.1 0
9 1.1 0
9.3 1.1 0
9.6 1.1 0
9.9 1.1 0
10.2 1.1 0
10.5 1.1 0
10.8 1.1 0
11.1 1.1 0
11.4 1.1 0
11.7 1.1 0
12 1.1 0
12.3 1.1 0
12.6 1.1 0
12.9 1.1 0
13.2 1.1 0
13.5 1.1 0
13.8 1.1 0
14.1 1.1 0
14.4 1.1 0
14.7 1.1 0
15 1.1 0
15.3 1.1 0
15.6 1.1 0
15.9 1.1 0
16.2 1.1 0
16.5 1.1 0
16.8 1.1 0
17.1 1.1 0
17.4 1.1 0
17.7 1.1 0
18 1.1 0
18.3 1.1 0
18.6 1.1 0
18.9 1.1 0
19.2 1.1 0
19.5 1.1 0
19.8 1.1 0
20.1 1.1 0
20.4 1.1 0
20.7 1.1 0
21 1.1 0
21.3 1.1 0
21.6 1.1 0
21.9 1.1 0
22.2 1.1 0
22.5 1.1 0
22.8 1.1 0
23.1 1.1 0
23.4 1.1 0
23.7 1.1 0
24 1.1 0
24.3 1.1 0
24.6 1.1 0
24.9 1.1 0
25.2 1.1 0
25.5 1.1 0
25.8 1.1 0
26.1 1.1 0
26.4 1.1 0
26.7 1.1 0
27 1.1 0
27.3 1.1 0
27.6 1.1 0
27.9 1.1 0
28.2 1.1 0
28.5 1.1 0
28.8 1.1 0
29.1 1.1 0
29.4 1.1 0
29.7 1.1 0
30 1.1 0
30.3 1.1 0
0 1.2 0
0.3 1.2 0
0.6 1.2 0
0.9 1.2 0
1.2 1.2 0
1.5 1.2 0
1.8 1.2 0
2.1 1.2 0
2.4 1.2 0
2.7 1.2 0
3 1.2 0
3.3 1.2 0
3.6 1.2 0
3.9 1.2 0
4.2 1.2 0
4.5 1.2 0
4.8 1.2 0
5.1 1.2 0
5.4 1.2 0
5.7 1.2 0
6 1.2 0
6.3 1.2 0
6.6 1.2 0
6.9 1.2 0
7.2 1.2 0
7.5 1.2 0
7.8 1.2 0
8.1 1.2 0
8.4 1.2 0
8.7 1.2 0
9 1.2 0
9.3 1.2 0
9.6 1.2 0
9.9 1.2 0
10.2 1.2 0
10.5 1.2 0
10.8 1.2 0
11.1 1.2 0
11.4 1.2 0
11.7 1.2 0
12 1.2 0
12.3 1.2 0
12.6 1.2 0
12.9 1.2 0
13.2 1.2 0
13.5 1.2 0
13.8 1.2 0
14.1 1.2 0
14.4 1.2 0
14.7 1.2 0
15 1.2 0
15.3 1.2 0
15.6 1.2 0
15.9 1.2 0
16.2 1.2 0
16.5 1.2 0
16.8 1.2 0
17.1 1.2 0
17.4 1.2 0
17.7 1.2 0
18 1.2 0
18.3 1.2 0
18.6 1.2 0
18.9 1.2 0
19.2 1.2 0
19.5 1.2 0
19.8 1.2 0
20.1 1.2 0
20.4 1.2 0
20.7 1.2 0
21 1.2 0
21.3 1.2 0
21.6 1.2 0
21.9 1.2 0
22.2 1.2 0
22.5 1.2 0
22.8 1.2 0
23.1 1.2 0
23.4 1.2 0
23.7 1.2 0
24 1.2 0
24.3 1.2 0
24.6 1.2 0
24.9 1.2 0
25.2 1.2 0
25.5 1.2 0
25.8 1.2 0
26.1 1.2 0
26.4 1.2 0
26.7 1.2 0
27 1.2 0
27.3 1.2 0
27.6 1.2 0
27.9 1.2 0
28.2 1.2 0
28.5 1.2 0
28.8 1.2 0
29.1 1.2 0
29.4 1.2 0
29.7 1.2 0
30 1.2 0
30.3 1.2 0

POINT_DATA 1326

SCALARS p double
LOOKUP_TABLE default
1.16055
1.16055
1.09571
1.05147
1.01165
0.975075
0.942022
0.912494
0.88614
0.86243
0.840826
0.820865
0.802173
0.784472
0.767564
0.751306
0.735588
0.720331
0.705479
0.690985
0.67681
0.662925
0.649304
0.635926
0.62277
0.60982
0.597061
0.584478
0.57206
0.559796
0.547675
0.535689
0.523828
0.512084
0.500451
0.488922
0.477491
0.466151
0.454898
0.443726
0.432631
0.421608
0.410654
0.399764
0.388935
0.378164
0.367447
0.356781
0.346164
0.335593
0.325065
0.314578
0.304131
0.29372
0.283343
0.273
0.262688
0.252406
0.242151
0.231923
0.22172
0.21154
0.201383
0.191248
0.181132
0.171035
0.160957
0.150895
0.14085
0.13082
0.120805
0.110804
0.100817
0.0908424
0.0808806
0.0709309
0.0609928
0.051066
0.0411501
0.0312446
0.0213492
0.0114634
0.00158678
-0.00828114
-0.0181408
-0.0279928
-0.0378377
-0.0476759
-0.0575081
-0.0673347
-0.0771563
-0.0869735
-0.0967868
-0.106597
-0.116403
-0.126207
-0.136009
-0.145809
-0.155607
-0.165405
-0.1752
0.1752
1.16055
1.16055
1.09571
1.05147
1.01165
0.975075
0.942022
0.912494
0.88614
0.86243
0.840826
0.820865
0.802173
0.784472
0.767564
0.751306
0.735588
0.720331
0.705479
0.690985
0.67681
0.662925
0.649304
0.635926
0.62277
0.60982
0.597061
0.584478
0.57206
0.559796
0.547675
0.535689
0.523828
0.512084
0.500451
0.488922
0.477491
0.466151
0.454898
0.443726
0.432631
0.421608
0.410654
0.399764
0.388935
0.378164
0.367447
0.356781
0.346164
0.335593
0.325065
0.314578
0.304131
0.29372
0.283343
0.273
0.262688
0.252406
0.242151
0.231923
0.22172
0.21154
0.201383
0.191248
0.181132
0.171035
0.160957
0.150895
0.14085
0.13082
0.120805
0.110804
0.100817
0.0908424
0.0808806
0.0709309
0.0609928
0.051066
0.0411501
0.0312446
0.0213492
0.0114634
0.00158678
-0.00828114
-0.0181408
-0.0279928
-0.0378377
-0.0476759
-0.0575081
-0.0673347
-0.0771563
-0.0869735
-0.0967868
-0.106597
-0.116403
-0.126207
-0.136009
-0.145809
-0.155607
-0.165405
-0.1752
0.1752
1.13961
1.13961
1.09372
1.0517
1.01235
0.975871
0.942765
0.913126
0.886647
0.862824
0.84113
0.821099
0.802354
0.784616
0.767682
0.751404
0.73567
0.720402
0.705541
0.69104
0.67686
0.66297
0.649345
0.635963
0.622803
0.609851
0.597089
0.584504
0.572084
0.559818
0.547696
0.535708
0.523845
0.512101
0.500467
0.488937
0.477504
0.466164
0.45491
0.443737
0.432641
0.421618
0.410663
0.399773
0.388943
0.378171
0.367454
0.356788
0.34617
0.335599
0.325071
0.314584
0.304136
0.293724
0.283348
0.273005
0.262692
0.25241
0.242155
0.231927
0.221723
0.211544
0.201386
0.19125
0.181135
0.171038
0.160959
0.150897
0.140852
0.130822
0.120807
0.110806
0.100818
0.0908439
0.080882
0.0709321
0.060994
0.0510671
0.041151
0.0312454
0.0213499
0.011464
0.00158731
-0.00828069
-0.0181405
-0.0279925
-0.0378374
-0.0476757
-0.0575079
-0.0673346
-0.0771562
-0.0869735
-0.0967867
-0.106596
-0.116403
-0.126207
-0.136009
-0.145809
-0.155607
-0.165405
-0.1752
0.1752
1.12463
1.12463
1.09084
1.05193
1.01346
0.977195
0.944026
0.914204
0.887508
0.863483
0.841623
0.821464
0.802625
0.784821
0.767841
0.751529
0.735771
0.720486
0.705612
0.691101
0.676912
0.663016
0.649386
0.635999
0.622837
0.609881
0.597116
0.584529
0.572107
0.559839
0.547715
0.535725
0.523861
0.512116
0.500481
0.48895
0.477516
0.466175
0.45492
0.443747
0.43265
0.421626
0.410671
0.39978
0.38895
0.378178
0.36746
0.356793
0.346176
0.335604
0.325075
0.314588
0.30414
0.293728
0.283352
0.273008
0.262696
0.252413
0.242158
0.231929
0.221726
0.211546
0.201389
0.191253
0.181137
0.17104
0.160961
0.150899
0.140853
0.130823
0.120808
0.110807
0.10082
0.090845
0.080883
0.0709331
0.0609949
0.0510679
0.0411517
0.0312461
0.0213505
0.0114645
0.00158773
-0.00828034
-0.0181402
-0.0279923
-0.0378372
-0.0476756
-0.0575078
-0.0673345
-0.0771562
-0.0869734
-0.0967867
-0.106596
-0.116403
-0.126207
-0.136009
-0.145809
-0.155607
-0.165404
-0.175199
0.175199
1.11506
1.11506
1.08835
1.05204
1.01442
0.97839
0.945202
0.915241
0.888361
0.864156
0.84214
0.821858
0.802927
0.785056
0.768026
0.751678
0.735894
0.72059
0.705701
0.691177
0.676979
0.663075
0.649438
0.636046
0.622878
0.609918
0.59715
0.584559
0.572134
0.559864
0.547738
0.535746
0.523881
0.512134
0.500497
0.488965
0.47753
0.466188
0.454932
0.443758
0.432661
0.421636
0.41068
0.399788
0.388958
0.378185
0.367467
0.3568
0.346182
0.335609
0.325081
0.314593
0.304145
0.293733
0.283356
0.273012
0.262699
0.252416
0.242161
0.231932
0.221729
0.211549
0.201391
0.191255
0.181139
0.171042
0.160963
0.150901
0.140855
0.130825
0.12081
0.110809
0.100821
0.0908464
0.0808844
0.0709344
0.060996
0.051069
0.0411528
0.031247
0.0213514
0.0114653
0.00158849
-0.00827965
-0.0181395
-0.0279917
-0.0378367
-0.0476751
-0.0575074
-0.0673341
-0.0771559
-0.0869732
-0.0967865
-0.106596
-0.116403
-0.126207
-0.136009
-0.145809
-0.155607
-0.165403
-0.175197
0.175197
1.10974
1.10974
1.08672
1.05206
1.01501
0.979156
0.945972
0.91593
0.888939
0.86462
0.842505
0.822142
0.80315
0.785233
0.768169
0.751796
0.735993
0.720674
0.705774
0.691241
0.677036
0.663125
0.649483
0.636087
0.622915
0.609951
0.59718
0.584587
0.57216
0.559888
0.547759
0.535766
0.523899
0.51215
0.500513
0.488979
0.477544
0.4662
0.454944
0.443769
0.432671
0.421646
0.410689
0.399797
0.388966
0.378192
0.367474
0.356806
0.346188
0.335615
0.325086
0.314598
0.304149
0.293737
0.28336
0.273016
0.262703
0.25242
0.242164
0.231935
0.221732
0.211551
0.201394
0.191257
0.181141
0.171044
0.160965
0.150903
0.140857
0.130827
0.120811
0.11081
0.100823
0.0908479
0.0808857
0.0709357
0.0609973
0.0510702
0.0411539
0.0312481
0.0213524
0.0114663
0.0015894
-0.0082788
-0.0181388
-0.027991
-0.0378361
-0.0476745
-0.0575069
-0.0673337
-0.0771555
-0.0869728
-0.0967861
-0.106596
-0.116403
-0.126207
-0.136009
-0.145809
-0.155607
-0.165402
-0.175195
0.175195
1.10804
1.10804
1.08618
1.05207
1.01522
0.97943
0.946245
0.916176
0.889145
0.864787
0.842638
0.822246
0.803233
0.785299
0.768224
0.751841
0.736032
0.720708
0.705803
0.691267
0.677059
0.663146
0.649502
0.636104
0.622931
0.609966
0.597193
0.584599
0.572171
0.559898
0.547769
0.535775
0.523907
0.512158
0.500519
0.488985
0.477549
0.466206
0.454949
0.443773
0.432675
0.42165
0.410693
0.3998
0.388969
0.378195
0.367476
0.356809
0.34619
0.335617
0.325088
0.3146
0.304151
0.293739
0.283362
0.273018
0.262705
0.252421
0.242166
0.231937
0.221733
0.211553
0.201395
0.191258
0.181142
0.171045
0.160966
0.150904
0.140858
0.130828
0.120812
0.110811
0.100823
0.0908485
0.0808863
0.0709363
0.0609979
0.0510707
0.0411544
0.0312486
0.0213529
0.0114668
0.00158982
-0.00827839
-0.0181384
-0.0279906
-0.0378358
-0.0476742
-0.0575066
-0.0673334
-0.0771552
-0.0869726
-0.096786
-0.106596
-0.116403
-0.126207
-0.136009
-0.145809
-0.155607
-0.165402
-0.175194
0.175194
1.10974
1.10974
1.08672
1.05206
1.01501
0.979156
0.945972
0.91593
0.888938
0.86462
0.842505
0.822142
0.80315
0.785233
0.768169
0.751795
0.735993
0.720675
0.705774
0.691241
0.677036
0.663125
0.649483
0.636087
0.622915
0.609951
0.59718
0.584587
0.57216
0.559888
0.547759
0.535766
0.523899
0.51215
0.500513
0.488979
0.477544
0.4662
0.454944
0.443769
0.432671
0.421645
0.410689
0.399797
0.388966
0.378192
0.367473
0.356806
0.346188
0.335615
0.325086
0.314598
0.304149
0.293737
0.28336
0.273016
0.262703
0.25242
0.242164
0.231935
0.221732
0.211551
0.201394
0.191257
0.181141
0.171044
0.160965
0.150903
0.140857
0.130827
0.120811
0.11081
0.100823
0.0908479
0.0808857
0.0709357
0.0609973
0.0510702
0.0411539
0.0312481
0.0213524
0.0114663
0.0015894
-0.00827879
-0.0181387
-0.027991
-0.0378361
-0.0476745
-0.0575069
-0.0673337
-0.0771555
-0.0869728
-0.0967861
-0.106596
-0.116403
-0.126207
-0.136009
-0.145809
-0.155607
-0.165402
-0.175195
0.175195
1.11506
1.11506
1.08835
1.05204
1.01442
0.978389
0.945203
0.915241
0.888361
0.864156
0.842141
0.821858
0.802927
0.785056
0.768026
0.751678
0.735894
0.72059
0.705701
0.691177
0.676979
0.663075
0.649438
0.636046
0.622878
0.609918
0.597149
0.584559
0.572134
0.559864
0.547738
0.535746
0.523881
0.512134
0.500497
0.488965
0.47753
0.466188
0.454932
0.443758
0.432661
0.421636
0.41068
0.399788
0.388958
0.378185
0.367467
0.3568
0.346182
0.335609
0.325081
0.314593
0.304145
0.293733
0.283356
0.273012
0.262699
0.252416
0.242161
0.231932
0.221729
0.211549
0.201391
0.191255
0.181139
0.171042
0.160963
0.150901
0.140855
0.130825
0.12081
0.110809
0.100821
0.0908464
0.0808844
0.0709344
0.060996
0.051069
0.0411528
0.0312471
0.0213514
0.0114653
0.00158849
-0.00827964
-0.0181395
-0.0279917
-0.0378367
-0.0476751
-0.0575074
-0.0673341
-0.0771559
-0.0869732
-0.0967865
-0.106596
-0.116403
-0.126207
-0.136009
-0.145809
-0.155607
-0.165403
-0.175197
0.175197
1.12463
1.12463
1.09084
1.05193
1.01346
0.977194
0.944027
0.914204
0.887507
0.863483
0.841623
0.821463
0.802625
0.784822
0.767841
0.751528
0.735771
0.720487
0.705613
0.691101
0.676912
0.663016
0.649386
0.635999
0.622837
0.609881
0.597116
0.584529
0.572107
0.559839
0.547715
0.535725
0.523861
0.512116
0.500481
0.48895
0.477516
0.466175
0.45492
0.443747
0.43265
0.421626
0.410671
0.39978
0.38895
0.378178
0.36746
0.356793
0.346176
0.335604
0.325075
0.314588
0.30414
0.293728
0.283352
0.273008
0.262696
0.252413
0.242158
0.231929
0.221726
0.211546
0.201389
0.191253
0.181137
0.17104
0.160961
0.150899
0.140853
0.130823
0.120808
0.110807
0.10082
0.090845
0.080883
0.0709331
0.0609949
0.0510679
0.0411517
0.0312461
0.0213505
0.0114645
0.00158773
-0.00828033
-0.0181402
-0.0279923
-0.0378372
-0.0476756
-0.0575078
-0.0673345
-0.0771562
-0.0869734
-0.0967867
-0.106596
-0.116403
-0.126207
-0.136009
-0.145809
-0.155607
-0.165404
-0.175199
0.175199
1.13961
1.13961
1.09372
1.0517
1.01235
0.97587
0.942765
0.913126
0.886646
0.862824
0.841131
0.821098
0.802353
0.784616
0.767683
0.751403
0.73567
0.720403
0.705542
0.69104
0.676859
0.66297
0.649345
0.635962
0.622803
0.609851
0.597089
0.584504
0.572084
0.559818
0.547696
0.535708
0.523845
0.512101
0.500467
0.488937
0.477504
0.466164
0.45491
0.443737
0.432641
0.421618
0.410663
0.399773
0.388943
0.378171
0.367454
0.356788
0.34617
0.335599
0.325071
0.314584
0.304136
0.293724
0.283348
0.273005
0.262692
0.25241
0.242155
0.231926
0.221723
0.211544
0.201386
0.19125
0.181135
0.171038
0.160959
0.150897
0.140852
0.130822
0.120807
0.110806
0.100818
0.0908439
0.080882
0.0709321
0.060994
0.0510671
0.041151
0.0312455
0.0213499
0.011464
0.00158732
-0.00828068
-0.0181405
-0.0279925
-0.0378374
-0.0476757
-0.0575079
-0.0673346
-0.0771562
-0.0869735
-0.0967867
-0.106596
-0.116403
-0.126207
-0.136009
-0.145809
-0.155607
-0.165405
-0.1752
0.1752
1.16055
1.16055
1.09571
1.05147
1.01165
0.975074
0.942023
0.912495
0.886138
0.862429
0.840828
0.820865
0.802171
0.784472
0.767565
0.751306
0.735587
0.720331
0.705479
0.690985
0.67681
0.662925
0.649304
0.635926
0.62277
0.60982
0.59706
0.584478
0.57206
0.559796
0.547675
0.535689
0.523828
0.512084
0.500451
0.488922
0.477491
0.466151
0.454898
0.443726
0.432631
0.421608
0.410654
0.399764
0.388935
0.378164
0.367447
0.356781
0.346164
0.335593
0.325065
0.314578
0.304131
0.29372
0.283343
0.273
0.262688
0.252406
0.242151
0.231923
0.22172
0.211541
0.201383
0.191248
0.181132
0.171035
0.160957
0.150895
0.14085
0.13082
0.120805
0.110804
0.100817
0.0908424
0.0808806
0.0709309
0.0609928
0.051066
0.0411501
0.0312446
0.0213492
0.0114634
0.00158679
-0.00828113
-0.0181408
-0.0279928
-0.0378377
-0.0476759
-0.0575081
-0.0673347
-0.0771563
-0.0869735
-0.0967868
-0.106597
-0.116403
-0.126207
-0.136009
-0.145809
-0.155607
-0.165405
-0.1752
0.1752
1.16055
1.16055
1.09571
1.05147
1.01165
0.975074
0.942023
0.912495
0.886138
0.862429
0.840828
0.820865
0.802171
0.784472
0.767565
0.751306
0.735587
0.720331
0.705479
0.690985
0.67681
0.662925
0.649304
0.635926
0.62277
0.60982
0.59706
0.584478
0.57206
0.559796
0.547675
0.535689
0.523828
0.512084
0.500451
0.488922
0.477491
0.466151
0.454898
0.443726
0.432631
0.421608
0.410654
0.399764
0.388935
0.378164
0.367447
0.356781
0.346164
0.335593
0.325065
0.314578
0.304131
0.29372
0.283343
0.273
0.262688
0.252406
0.242151
0.231923
0.22172
0.211541
0.201383
0.191248
0.181132
0.171035
0.160957
0.150895
0.14085
0.13082
0.120805
0.110804
0.100817
0.0908424
0.0808806
0.0709309
0.0609928
0.051066
0.0411501
0.0312446
0.0213492
0.0114634
0.00158679
-0.00828113
-0.0181408
-0.0279928
-0.0378377
-0.0476759
-0.0575081
-0.0673347
-0.0771563
-0.0869735
-0.0967868
-0.106597
-0.116403
-0.126207
-0.136009
-0.145809
-0.155607
-0.165405
-0.1752
0.1752
