# vtk DataFile Version 2.0
FlowField
ASCII
DATASET STRUCTURED_GRID
DIMENSIONS 102 1 12 
POINTS 1224 double
0 0 0
0.4 0 0
0.8 0 0
1.2 0 0
1.6 0 0
2 0 0
2.4 0 0
2.8 0 0
3.2 0 0
3.6 0 0
4 0 0
4.4 0 0
4.8 0 0
5.2 0 0
5.6 0 0
6 0 0
6.4 0 0
6.8 0 0
7.2 0 0
7.6 0 0
8 0 0
8.4 0 0
8.8 0 0
9.2 0 0
9.6 0 0
10 0 0
10.4 0 0
10.8 0 0
11.2 0 0
11.6 0 0
12 0 0
12.4 0 0
12.8 0 0
13.2 0 0
13.6 0 0
14 0 0
14.4 0 0
14.8 0 0
15.2 0 0
15.6 0 0
16 0 0
16.4 0 0
16.8 0 0
17.2 0 0
17.6 0 0
18 0 0
18.4 0 0
18.8 0 0
19.2 0 0
19.6 0 0
20 0 0
20.4 0 0
20.8 0 0
21.2 0 0
21.6 0 0
22 0 0
22.4 0 0
22.8 0 0
23.2 0 0
23.6 0 0
24 0 0
24.4 0 0
24.8 0 0
25.2 0 0
25.6 0 0
26 0 0
26.4 0 0
26.8 0 0
27.2 0 0
27.6 0 0
28 0 0
28.4 0 0
28.8 0 0
29.2 0 0
29.6 0 0
30 0 0
30.4 0 0
30.8 0 0
31.2 0 0
31.6 0 0
32 0 0
32.4 0 0
32.8 0 0
33.2 0 0
33.6 0 0
34 0 0
34.4 0 0
34.8 0 0
35.2 0 0
35.6 0 0
36 0 0
36.4 0 0
36.8 0 0
37.2 0 0
37.6 0 0
38 0 0
38.4 0 0
38.8 0 0
39.2 0 0
39.6 0 0
40 0 0
40.4 0 0
0 0.1 0
0.4 0.1 0
0.8 0.1 0
1.2 0.1 0
1.6 0.1 0
2 0.1 0
2.4 0.1 0
2.8 0.1 0
3.2 0.1 0
3.6 0.1 0
4 0.1 0
4.4 0.1 0
4.8 0.1 0
5.2 0.1 0
5.6 0.1 0
6 0.1 0
6.4 0.1 0
6.8 0.1 0
7.2 0.1 0
7.6 0.1 0
8 0.1 0
8.4 0.1 0
8.8 0.1 0
9.2 0.1 0
9.6 0.1 0
10 0.1 0
10.4 0.1 0
10.8 0.1 0
11.2 0.1 0
11.6 0.1 0
12 0.1 0
12.4 0.1 0
12.8 0.1 0
13.2 0.1 0
13.6 0.1 0
14 0.1 0
14.4 0.1 0
14.8 0.1 0
15.2 0.1 0
15.6 0.1 0
16 0.1 0
16.4 0.1 0
16.8 0.1 0
17.2 0.1 0
17.6 0.1 0
18 0.1 0
18.4 0.1 0
18.8 0.1 0
19.2 0.1 0
19.6 0.1 0
20 0.1 0
20.4 0.1 0
20.8 0.1 0
21.2 0.1 0
21.6 0.1 0
22 0.1 0
22.4 0.1 0
22.8 0.1 0
23.2 0.1 0
23.6 0.1 0
24 0.1 0
24.4 0.1 0
24.8 0.1 0
25.2 0.1 0
25.6 0.1 0
26 0.1 0
26.4 0.1 0
26.8 0.1 0
27.2 0.1 0
27.6 0.1 0
28 0.1 0
28.4 0.1 0
28.8 0.1 0
29.2 0.1 0
29.6 0.1 0
30 0.1 0
30.4 0.1 0
30.8 0.1 0
31.2 0.1 0
31.6 0.1 0
32 0.1 0
32.4 0.1 0
32.8 0.1 0
33.2 0.1 0
33.6 0.1 0
34 0.1 0
34.4 0.1 0
34.8 0.1 0
35.2 0.1 0
35.6 0.1 0
36 0.1 0
36.4 0.1 0
36.8 0.1 0
37.2 0.1 0
37.6 0.1 0
38 0.1 0
38.4 0.1 0
38.8 0.1 0
39.2 0.1 0
39.6 0.1 0
40 0.1 0
40.4 0.1 0
0 0.2 0
0.4 0.2 0
0.8 0.2 0
1.2 0.2 0
1.6 0.2 0
2 0.2 0
2.4 0.2 0
2.8 0.2 0
3.2 0.2 0
3.6 0.2 0
4 0.2 0
4.4 0.2 0
4.8 0.2 0
5.2 0.2 0
5.6 0.2 0
6 0.2 0
6.4 0.2 0
6.8 0.2 0
7.2 0.2 0
7.6 0.2 0
8 0.2 0
8.4 0.2 0
8.8 0.2 0
9.2 0.2 0
9.6 0.2 0
10 0.2 0
10.4 0.2 0
10.8 0.2 0
11.2 0.2 0
11.6 0.2 0
12 0.2 0
12.4 0.2 0
12.8 0.2 0
13.2 0.2 0
13.6 0.2 0
14 0.2 0
14.4 0.2 0
14.8 0.2 0
15.2 0.2 0
15.6 0.2 0
16 0.2 0
16.4 0.2 0
16.8 0.2 0
17.2 0.2 0
17.6 0.2 0
18 0.2 0
18.4 0.2 0
18.8 0.2 0
19.2 0.2 0
19.6 0.2 0
20 0.2 0
20.4 0.2 0
20.8 0.2 0
21.2 0.2 0
21.6 0.2 0
22 0.2 0
22.4 0.2 0
22.8 0.2 0
23.2 0.2 0
23.6 0.2 0
24 0.2 0
24.4 0.2 0
24.8 0.2 0
25.2 0.2 0
25.6 0.2 0
26 0.2 0
26.4 0.2 0
26.8 0.2 0
27.2 0.2 0
27.6 0.2 0
28 0.2 0
28.4 0.2 0
28.8 0.2 0
29.2 0.2 0
29.6 0.2 0
30 0.2 0
30.4 0.2 0
30.8 0.2 0
31.2 0.2 0
31.6 0.2 0
32 0.2 0
32.4 0.2 0
32.8 0.2 0
33.2 0.2 0
33.6 0.2 0
34 0.2 0
34.4 0.2 0
34.8 0.2 0
35.2 0.2 0
35.6 0.2 0
36 0.2 0
36.4 0.2 0
36.8 0.2 0
37.2 0.2 0
37.6 0.2 0
38 0.2 0
38.4 0.2 0
38.8 0.2 0
39.2 0.2 0
39.6 0.2 0
40 0.2 0
40.4 0.2 0
0 0.3 0
0.4 0.3 0
0.8 0.3 0
1.2 0.3 0
1.6 0.3 0
2 0.3 0
2.4 0.3 0
2.8 0.3 0
3.2 0.3 0
3.6 0.3 0
4 0.3 0
4.4 0.3 0
4.8 0.3 0
5.2 0.3 0
5.6 0.3 0
6 0.3 0
6.4 0.3 0
6.8 0.3 0
7.2 0.3 0
7.6 0.3 0
8 0.3 0
8.4 0.3 0
8.8 0.3 0
9.2 0.3 0
9.6 0.3 0
10 0.3 0
10.4 0.3 0
10.8 0.3 0
11.2 0.3 0
11.6 0.3 0
12 0.3 0
12.4 0.3 0
12.8 0.3 0
13.2 0.3 0
13.6 0.3 0
14 0.3 0
14.4 0.3 0
14.8 0.3 0
15.2 0.3 0
15.6 0.3 0
16 0.3 0
16.4 0.3 0
16.8 0.3 0
17.2 0.3 0
17.6 0.3 0
18 0.3 0
18.4 0.3 0
18.8 0.3 0
19.2 0.3 0
19.6 0.3 0
20 0.3 0
20.4 0.3 0
20.8 0.3 0
21.2 0.3 0
21.6 0.3 0
22 0.3 0
22.4 0.3 0
22.8 0.3 0
23.2 0.3 0
23.6 0.3 0
24 0.3 0
24.4 0.3 0
24.8 0.3 0
25.2 0.3 0
25.6 0.3 0
26 0.3 0
26.4 0.3 0
26.8 0.3 0
27.2 0.3 0
27.6 0.3 0
28 0.3 0
28.4 0.3 0
28.8 0.3 0
29.2 0.3 0
29.6 0.3 0
30 0.3 0
30.4 0.3 0
30.8 0.3 0
31.2 0.3 0
31.6 0.3 0
32 0.3 0
32.4 0.3 0
32.8 0.3 0
33.2 0.3 0
33.6 0.3 0
34 0.3 0
34.4 0.3 0
34.8 0.3 0
35.2 0.3 0
35.6 0.3 0
36 0.3 0
36.4 0.3 0
36.8 0.3 0
37.2 0.3 0
37.6 0.3 0
38 0.3 0
38.4 0.3 0
38.8 0.3 0
39.2 0.3 0
39.6 0.3 0
40 0.3 0
40.4 0.3 0
0 0.4 0
0.4 0.4 0
0.8 0.4 0
1.2 0.4 0
1.6 0.4 0
2 0.4 0
2.4 0.4 0
2.8 0.4 0
3.2 0.4 0
3.6 0.4 0
4 0.4 0
4.4 0.4 0
4.8 0.4 0
5.2 0.4 0
5.6 0.4 0
6 0.4 0
6.4 0.4 0
6.8 0.4 0
7.2 0.4 0
7.6 0.4 0
8 0.4 0
8.4 0.4 0
8.8 0.4 0
9.2 0.4 0
9.6 0.4 0
10 0.4 0
10.4 0.4 0
10.8 0.4 0
11.2 0.4 0
11.6 0.4 0
12 0.4 0
12.4 0.4 0
12.8 0.4 0
13.2 0.4 0
13.6 0.4 0
14 0.4 0
14.4 0.4 0
14.8 0.4 0
15.2 0.4 0
15.6 0.4 0
16 0.4 0
16.4 0.4 0
16.8 0.4 0
17.2 0.4 0
17.6 0.4 0
18 0.4 0
18.4 0.4 0
18.8 0.4 0
19.2 0.4 0
19.6 0.4 0
20 0.4 0
20.4 0.4 0
20.8 0.4 0
21.2 0.4 0
21.6 0.4 0
22 0.4 0
22.4 0.4 0
22.8 0.4 0
23.2 0.4 0
23.6 0.4 0
24 0.4 0
24.4 0.4 0
24.8 0.4 0
25.2 0.4 0
25.6 0.4 0
26 0.4 0
26.4 0.4 0
26.8 0.4 0
27.2 0.4 0
27.6 0.4 0
28 0.4 0
28.4 0.4 0
28.8 0.4 0
29.2 0.4 0
29.6 0.4 0
30 0.4 0
30.4 0.4 0
30.8 0.4 0
31.2 0.4 0
31.6 0.4 0
32 0.4 0
32.4 0.4 0
32.8 0.4 0
33.2 0.4 0
33.6 0.4 0
34 0.4 0
34.4 0.4 0
34.8 0.4 0
35.2 0.4 0
35.6 0.4 0
36 0.4 0
36.4 0.4 0
36.8 0.4 0
37.2 0.4 0
37.6 0.4 0
38 0.4 0
38.4 0.4 0
38.8 0.4 0
39.2 0.4 0
39.6 0.4 0
40 0.4 0
40.4 0.4 0
0 0.5 0
0.4 0.5 0
0.8 0.5 0
1.2 0.5 0
1.6 0.5 0
2 0.5 0
2.4 0.5 0
2.8 0.5 0
3.2 0.5 0
3.6 0.5 0
4 0.5 0
4.4 0.5 0
4.8 0.5 0
5.2 0.5 0
5.6 0.5 0
6 0.5 0
6.4 0.5 0
6.8 0.5 0
7.2 0.5 0
7.6 0.5 0
8 0.5 0
8.4 0.5 0
8.8 0.5 0
9.2 0.5 0
9.6 0.5 0
10 0.5 0
10.4 0.5 0
10.8 0.5 0
11.2 0.5 0
11.6 0.5 0
12 0.5 0
12.4 0.5 0
12.8 0.5 0
13.2 0.5 0
13.6 0.5 0
14 0.5 0
14.4 0.5 0
14.8 0.5 0
15.2 0.5 0
15.6 0.5 0
16 0.5 0
16.4 0.5 0
16.8 0.5 0
17.2 0.5 0
17.6 0.5 0
18 0.5 0
18.4 0.5 0
18.8 0.5 0
19.2 0.5 0
19.6 0.5 0
20 0.5 0
20.4 0.5 0
20.8 0.5 0
21.2 0.5 0
21.6 0.5 0
22 0.5 0
22.4 0.5 0
22.8 0.5 0
23.2 0.5 0
23.6 0.5 0
24 0.5 0
24.4 0.5 0
24.8 0.5 0
25.2 0.5 0
25.6 0.5 0
26 0.5 0
26.4 0.5 0
26.8 0.5 0
27.2 0.5 0
27.6 0.5 0
28 0.5 0
28.4 0.5 0
28.8 0.5 0
29.2 0.5 0
29.6 0.5 0
30 0.5 0
30.4 0.5 0
30.8 0.5 0
31.2 0.5 0
31.6 0.5 0
32 0.5 0
32.4 0.5 0
32.8 0.5 0
33.2 0.5 0
33.6 0.5 0
34 0.5 0
34.4 0.5 0
34.8 0.5 0
35.2 0.5 0
35.6 0.5 0
36 0.5 0
36.4 0.5 0
36.8 0.5 0
37.2 0.5 0
37.6 0.5 0
38 0.5 0
38.4 0.5 0
38.8 0.5 0
39.2 0.5 0
39.6 0.5 0
40 0.5 0
40.4 0.5 0
0 0.6 0
0.4 0.6 0
0.8 0.6 0
1.2 0.6 0
1.6 0.6 0
2 0.6 0
2.4 0.6 0
2.8 0.6 0
3.2 0.6 0
3.6 0.6 0
4 0.6 0
4.4 0.6 0
4.8 0.6 0
5.2 0.6 0
5.6 0.6 0
6 0.6 0
6.4 0.6 0
6.8 0.6 0
7.2 0.6 0
7.6 0.6 0
8 0.6 0
8.4 0.6 0
8.8 0.6 0
9.2 0.6 0
9.6 0.6 0
10 0.6 0
10.4 0.6 0
10.8 0.6 0
11.2 0.6 0
11.6 0.6 0
12 0.6 0
12.4 0.6 0
12.8 0.6 0
13.2 0.6 0
13.6 0.6 0
14 0.6 0
14.4 0.6 0
14.8 0.6 0
15.2 0.6 0
15.6 0.6 0
16 0.6 0
16.4 0.6 0
16.8 0.6 0
17.2 0.6 0
17.6 0.6 0
18 0.6 0
18.4 0.6 0
18.8 0.6 0
19.2 0.6 0
19.6 0.6 0
20 0.6 0
20.4 0.6 0
20.8 0.6 0
21.2 0.6 0
21.6 0.6 0
22 0.6 0
22.4 0.6 0
22.8 0.6 0
23.2 0.6 0
23.6 0.6 0
24 0.6 0
24.4 0.6 0
24.8 0.6 0
25.2 0.6 0
25.6 0.6 0
26 0.6 0
26.4 0.6 0
26.8 0.6 0
27.2 0.6 0
27.6 0.6 0
28 0.6 0
28.4 0.6 0
28.8 0.6 0
29.2 0.6 0
29.6 0.6 0
30 0.6 0
30.4 0.6 0
30.8 0.6 0
31.2 0.6 0
31.6 0.6 0
32 0.6 0
32.4 0.6 0
32.8 0.6 0
33.2 0.6 0
33.6 0.6 0
34 0.6 0
34.4 0.6 0
34.8 0.6 0
35.2 0.6 0
35.6 0.6 0
36 0.6 0
36.4 0.6 0
36.8 0.6 0
37.2 0.6 0
37.6 0.6 0
38 0.6 0
38.4 0.6 0
38.8 0.6 0
39.2 0.6 0
39.6 0.6 0
40 0.6 0
40.4 0.6 0
0 0.7 0
0.4 0.7 0
0.8 0.7 0
1.2 0.7 0
1.6 0.7 0
2 0.7 0
2.4 0.7 0
2.8 0.7 0
3.2 0.7 0
3.6 0.7 0
4 0.7 0
4.4 0.7 0
4.8 0.7 0
5.2 0.7 0
5.6 0.7 0
6 0.7 0
6.4 0.7 0
6.8 0.7 0
7.2 0.7 0
7.6 0.7 0
8 0.7 0
8.4 0.7 0
8.8 0.7 0
9.2 0.7 0
9.6 0.7 0
10 0.7 0
10.4 0.7 0
10.8 0.7 0
11.2 0.7 0
11.6 0.7 0
12 0.7 0
12.4 0.7 0
12.8 0.7 0
13.2 0.7 0
13.6 0.7 0
14 0.7 0
14.4 0.7 0
14.8 0.7 0
15.2 0.7 0
15.6 0.7 0
16 0.7 0
16.4 0.7 0
16.8 0.7 0
17.2 0.7 0
17.6 0.7 0
18 0.7 0
18.4 0.7 0
18.8 0.7 0
19.2 0.7 0
19.6 0.7 0
20 0.7 0
20.4 0.7 0
20.8 0.7 0
21.2 0.7 0
21.6 0.7 0
22 0.7 0
22.4 0.7 0
22.8 0.7 0
23.2 0.7 0
23.6 0.7 0
24 0.7 0
24.4 0.7 0
24.8 0.7 0
25.2 0.7 0
25.6 0.7 0
26 0.7 0
26.4 0.7 0
26.8 0.7 0
27.2 0.7 0
27.6 0.7 0
28 0.7 0
28.4 0.7 0
28.8 0.7 0
29.2 0.7 0
29.6 0.7 0
30 0.7 0
30.4 0.7 0
30.8 0.7 0
31.2 0.7 0
31.6 0.7 0
32 0.7 0
32.4 0.7 0
32.8 0.7 0
33.2 0.7 0
33.6 0.7 0
34 0.7 0
34.4 0.7 0
34.8 0.7 0
35.2 0.7 0
35.6 0.7 0
36 0.7 0
36.4 0.7 0
36.8 0.7 0
37.2 0.7 0
37.6 0.7 0
38 0.7 0
38.4 0.7 0
38.8 0.7 0
39.2 0.7 0
39.6 0.7 0
40 0.7 0
40.4 0.7 0
0 0.8 0
0.4 0.8 0
0.8 0.8 0
1.2 0.8 0
1.6 0.8 0
2 0.8 0
2.4 0.8 0
2.8 0.8 0
3.2 0.8 0
3.6 0.8 0
4 0.8 0
4.4 0.8 0
4.8 0.8 0
5.2 0.8 0
5.6 0.8 0
6 0.8 0
6.4 0.8 0
6.8 0.8 0
7.2 0.8 0
7.6 0.8 0
8 0.8 0
8.4 0.8 0
8.8 0.8 0
9.2 0.8 0
9.6 0.8 0
10 0.8 0
10.4 0.8 0
10.8 0.8 0
11.2 0.8 0
11.6 0.8 0
12 0.8 0
12.4 0.8 0
12.8 0.8 0
13.2 0.8 0
13.6 0.8 0
14 0.8 0
14.4 0.8 0
14.8 0.8 0
15.2 0.8 0
15.6 0.8 0
16 0.8 0
16.4 0.8 0
16.8 0.8 0
17.2 0.8 0
17.6 0.8 0
18 0.8 0
18.4 0.8 0
18.8 0.8 0
19.2 0.8 0
19.6 0.8 0
20 0.8 0
20.4 0.8 0
20.8 0.8 0
21.2 0.8 0
21.6 0.8 0
22 0.8 0
22.4 0.8 0
22.8 0.8 0
23.2 0.8 0
23.6 0.8 0
24 0.8 0
24.4 0.8 0
24.8 0.8 0
25.2 0.8 0
25.6 0.8 0
26 0.8 0
26.4 0.8 0
26.8 0.8 0
27.2 0.8 0
27.6 0.8 0
28 0.8 0
28.4 0.8 0
28.8 0.8 0
29.2 0.8 0
29.6 0.8 0
30 0.8 0
30.4 0.8 0
30.8 0.8 0
31.2 0.8 0
31.6 0.8 0
32 0.8 0
32.4 0.8 0
32.8 0.8 0
33.2 0.8 0
33.6 0.8 0
34 0.8 0
34.4 0.8 0
34.8 0.8 0
35.2 0.8 0
35.6 0.8 0
36 0.8 0
36.4 0.8 0
36.8 0.8 0
37.2 0.8 0
37.6 0.8 0
38 0.8 0
38.4 0.8 0
38.8 0.8 0
39.2 0.8 0
39.6 0.8 0
40 0.8 0
40.4 0.8 0
0 0.9 0
0.4 0.9 0
0.8 0.9 0
1.2 0.9 0
1.6 0.9 0
2 0.9 0
2.4 0.9 0
2.8 0.9 0
3.2 0.9 0
3.6 0.9 0
4 0.9 0
4.4 0.9 0
4.8 0.9 0
5.2 0.9 0
5.6 0.9 0
6 0.9 0
6.4 0.9 0
6.8 0.9 0
7.2 0.9 0
7.6 0.9 0
8 0.9 0
8.4 0.9 0
8.8 0.9 0
9.2 0.9 0
9.6 0.9 0
10 0.9 0
10.4 0.9 0
10.8 0.9 0
11.2 0.9 0
11.6 0.9 0
12 0.9 0
12.4 0.9 0
12.8 0.9 0
13.2 0.9 0
13.6 0.9 0
14 0.9 0
14.4 0.9 0
14.8 0.9 0
15.2 0.9 0
15.6 0.9 0
16 0.9 0
16.4 0.9 0
16.8 0.9 0
17.2 0.9 0
17.6 0.9 0
18 0.9 0
18.4 0.9 0
18.8 0.9 0
19.2 0.9 0
19.6 0.9 0
20 0.9 0
20.4 0.9 0
20.8 0.9 0
21.2 0.9 0
21.6 0.9 0
22 0.9 0
22.4 0.9 0
22.8 0.9 0
23.2 0.9 0
23.6 0.9 0
24 0.9 0
24.4 0.9 0
24.8 0.9 0
25.2 0.9 0
25.6 0.9 0
26 0.9 0
26.4 0.9 0
26.8 0.9 0
27.2 0.9 0
27.6 0.9 0
28 0.9 0
28.4 0.9 0
28.8 0.9 0
29.2 0.9 0
29.6 0.9 0
30 0.9 0
30.4 0.9 0
30.8 0.9 0
31.2 0.9 0
31.6 0.9 0
32 0.9 0
32.4 0.9 0
32.8 0.9 0
33.2 0.9 0
33.6 0.9 0
34 0.9 0
34.4 0.9 0
34.8 0.9 0
35.2 0.9 0
35.6 0.9 0
36 0.9 0
36.4 0.9 0
36.8 0.9 0
37.2 0.9 0
37.6 0.9 0
38 0.9 0
38.4 0.9 0
38.8 0.9 0
39.2 0.9 0
39.6 0.9 0
40 0.9 0
40.4 0.9 0
0 1 0
0.4 1 0
0.8 1 0
1.2 1 0
1.6 1 0
2 1 0
2.4 1 0
2.8 1 0
3.2 1 0
3.6 1 0
4 1 0
4.4 1 0
4.8 1 0
5.2 1 0
5.6 1 0
6 1 0
6.4 1 0
6.8 1 0
7.2 1 0
7.6 1 0
8 1 0
8.4 1 0
8.8 1 0
9.2 1 0
9.6 1 0
10 1 0
10.4 1 0
10.8 1 0
11.2 1 0
11.6 1 0
12 1 0
12.4 1 0
12.8 1 0
13.2 1 0
13.6 1 0
14 1 0
14.4 1 0
14.8 1 0
15.2 1 0
15.6 1 0
16 1 0
16.4 1 0
16.8 1 0
17.2 1 0
17.6 1 0
18 1 0
18.4 1 0
18.8 1 0
19.2 1 0
19.6 1 0
20 1 0
20.4 1 0
20.8 1 0
21.2 1 0
21.6 1 0
22 1 0
22.4 1 0
22.8 1 0
23.2 1 0
23.6 1 0
24 1 0
24.4 1 0
24.8 1 0
25.2 1 0
25.6 1 0
26 1 0
26.4 1 0
26.8 1 0
27.2 1 0
27.6 1 0
28 1 0
28.4 1 0
28.8 1 0
29.2 1 0
29.6 1 0
30 1 0
30.4 1 0
30.8 1 0
31.2 1 0
31.6 1 0
32 1 0
32.4 1 0
32.8 1 0
33.2 1 0
33.6 1 0
34 1 0
34.4 1 0
34.8 1 0
35.2 1 0
35.6 1 0
36 1 0
36.4 1 0
36.8 1 0
37.2 1 0
37.6 1 0
38 1 0
38.4 1 0
38.8 1 0
39.2 1 0
39.6 1 0
40 1 0
40.4 1 0
0 1.1 0
0.4 1.1 0
0.8 1.1 0
1.2 1.1 0
1.6 1.1 0
2 1.1 0
2.4 1.1 0
2.8 1.1 0
3.2 1.1 0
3.6 1.1 0
4 1.1 0
4.4 1.1 0
4.8 1.1 0
5.2 1.1 0
5.6 1.1 0
6 1.1 0
6.4 1.1 0
6.8 1.1 0
7.2 1.1 0
7.6 1.1 0
8 1.1 0
8.4 1.1 0
8.8 1.1 0
9.2 1.1 0
9.6 1.1 0
10 1.1 0
10.4 1.1 0
10.8 1.1 0
11.2 1.1 0
11.6 1.1 0
12 1.1 0
12.4 1.1 0
12.8 1.1 0
13.2 1.1 0
13.6 1.1 0
14 1.1 0
14.4 1.1 0
14.8 1.1 0
15.2 1.1 0
15.6 1.1 0
16 1.1 0
16.4 1.1 0
16.8 1.1 0
17.2 1.1 0
17.6 1.1 0
18 1.1 0
18.4 1.1 0
18.8 1.1 0
19.2 1.1 0
19.6 1.1 0
20 1.1 0
20.4 1.1 0
20.8 1.1 0
21.2 1.1 0
21.6 1.1 0
22 1.1 0
22.4 1.1 0
22.8 1.1 0
23.2 1.1 0
23.6 1.1 0
24 1.1 0
24.4 1.1 0
24.8 1.1 0
25.2 1.1 0
25.6 1.1 0
26 1.1 0
26.4 1.1 0
26.8 1.1 0
27.2 1.1 0
27.6 1.1 0
28 1.1 0
28.4 1.1 0
28.8 1.1 0
29.2 1.1 0
29.6 1.1 0
30 1.1 0
30.4 1.1 0
30.8 1.1 0
31.2 1.1 0
31.6 1.1 0
32 1.1 0
32.4 1.1 0
32.8 1.1 0
33.2 1.1 0
33.6 1.1 0
34 1.1 0
34.4 1.1 0
34.8 1.1 0
35.2 1.1 0
35.6 1.1 0
36 1.1 0
36.4 1.1 0
36.8 1.1 0
37.2 1.1 0
37.6 1.1 0
38 1.1 0
38.4 1.1 0
38.8 1.1 0
39.2 1.1 0
39.6 1.1 0
40 1.1 0
40.4 1.1 0

POINT_DATA 1224

SCALARS v double
LOOKUP_TABLE default
0
0
0
0
0
0
0
0
0
0
0
0
0
0
0
0
0
0
0
0
0
0
0
0
0
0
0
0
0
0
0
0
0
0
0
0
0
0
0
0
0
0
0
0
0
0
0
0
0
0
0
0
0
0
0
0
0
0
0
0
0
0
0
0
0
0
0
0
0
0
0
0
0
0
0
0
0
0
0
0
0
0
0
0
0
0
0
0
0
0
0
0
0
0
0
0
0
0
0
0
0
0
-0.00751344
0.00751344
0.0146552
0.0162812
0.0149618
0.0125487
0.0100747
0.0079588
0.00628243
0.00499021
0.00399567
0.00322205
0.00261164
0.00212353
0.00172905
0.00140773
0.00114462
0.000928456
0.000750532
0.00060401
0.000483413
0.000384308
0.000303059
0.000236668
0.000182639
0.000138888
0.000103667
7.55074e-05
5.31747e-05
3.563e-05
2.20034e-05
1.15523e-05
3.68566e-06
-2.31829e-06
-6.66956e-06
-9.65225e-06
-1.15455e-05
-1.25936e-05
-1.30007e-05
-1.29336e-05
-1.25264e-05
-1.18856e-05
-1.10942e-05
-1.02166e-05
-9.30131e-06
-8.38434e-06
-7.49163e-06
-6.64117e-06
-5.8447e-06
-5.10917e-06
-4.43787e-06
-3.83142e-06
-3.28844e-06
-2.80618e-06
-2.381e-06
-2.00868e-06
-1.68475e-06
-1.40462e-06
-1.1638e-06
-9.57954e-07
-7.83012e-07
-6.35173e-07
-5.10956e-07
-4.072e-07
-3.21062e-07
-2.50006e-07
-1.91788e-07
-1.44437e-07
-1.06231e-07
-7.56766e-08
-5.14854e-08
-3.25531e-08
-1.79477e-08
-6.84528e-09
1.1777e-09
6.91001e-09
1.09028e-08
1.3549e-08
1.5158e-08
1.59768e-08
1.62022e-08
1.59924e-08
1.54677e-08
1.47383e-08
1.38266e-08
1.29459e-08
1.14443e-08
1.12137e-08
3.43436e-09
9.65935e-09
-8.36322e-08
-7.77955e-09
-1.25713e-06
-4.76512e-07
-1.7345e-05
-1.02442e-05
-0.000240809
-0.000168708
-0.00349307
-0.00153827
-0.0477942
-0.0477942
-0.00621567
0.00621567
0.0142999
0.0183624
0.0194157
0.0185586
0.0167091
0.0144992
0.0122985
0.0102885
0.00853603
0.00704673
0.00579863
0.00476021
0.00389924
0.00318648
0.00259682
0.00210924
0.00170635
0.00137381
0.00109978
0.000874463
0.000689739
0.000538825
0.000416053
0.000316672
0.000236693
0.000172763
0.000122064
8.22298e-05
5.12799e-05
2.75345e-05
9.64914e-06
-3.77342e-06
-1.35624e-05
-2.03713e-05
-2.47887e-05
-2.73287e-05
-2.84277e-05
-2.84477e-05
-2.76839e-05
-2.63734e-05
-2.47032e-05
-2.28191e-05
-2.08323e-05
-1.8826e-05
-1.68607e-05
-1.49792e-05
-1.32099e-05
-1.15701e-05
-1.00689e-05
-8.70889e-06
-7.48814e-06
-6.40139e-06
-5.44119e-06
-4.59867e-06
-3.8642e-06
-3.22787e-06
-2.67983e-06
-2.21057e-06
-1.81104e-06
-1.47281e-06
-1.18812e-06
-9.49876e-07
-7.51712e-07
-5.87918e-07
-4.53433e-07
-3.43799e-07
-2.55118e-07
-1.83999e-07
-1.27514e-07
-8.31478e-08
-4.87552e-08
-2.25157e-08
-2.98246e-09
1.10233e-08
2.07954e-08
2.73171e-08
3.1353e-08
3.35033e-08
3.42409e-08
3.39414e-08
3.28924e-08
3.13471e-08
2.93948e-08
2.74562e-08
2.44644e-08
2.4018e-08
1.11207e-08
2.91407e-08
-1.16407e-07
1.28012e-07
-1.81277e-06
1.25337e-06
-2.50763e-05
1.34197e-05
-0.000347828
0.000140675
-0.00482119
0.000857423
-0.061277
-0.061277
-0.00401801
0.00401801
0.00987185
0.0135457
0.0153924
0.0158461
0.0153379
0.0142366
0.0128244
0.0112996
0.00979083
0.00837399
0.00708835
0.00594912
0.00495668
0.00410299
0.00337575
0.002761
0.00224467
0.00181341
0.00145504
0.00115869
0.000914795
0.000715079
0.000552399
0.000420642
0.000314602
0.00022986
0.000162684
0.000109927
6.89504e-05
3.75312e-05
1.3848e-05
-3.76733e-06
-1.65568e-05
-2.54715e-05
-3.13083e-05
-3.47352e-05
-3.63076e-05
-3.64832e-05
-3.56349e-05
-3.40631e-05
-3.20069e-05
-2.96536e-05
-2.71477e-05
-2.45986e-05
-2.20869e-05
-1.96701e-05
-1.73875e-05
-1.52639e-05
-1.33129e-05
-1.15398e-05
-9.94363e-06
-8.51874e-06
-7.2565e-06
-6.14624e-06
-5.17608e-06
-4.33364e-06
-3.60648e-06
-2.98248e-06
-2.45004e-06
-1.99832e-06
-1.61725e-06
-1.29763e-06
-1.03116e-06
-8.10366e-07
-6.28605e-07
-4.80017e-07
-3.59457e-07
-2.62444e-07
-1.85096e-07
-1.24076e-07
-7.65125e-08
-4.00216e-08
-1.24693e-08
7.66554e-09
2.19291e-08
3.16235e-08
3.77962e-08
4.1285e-08
4.27563e-08
4.27401e-08
4.16473e-08
3.98244e-08
3.74417e-08
3.49771e-08
3.13971e-08
3.07159e-08
1.66475e-08
4.20299e-08
-1.16512e-07
2.5497e-07
-1.88844e-06
3.04001e-06
-2.59264e-05
3.68638e-05
-0.000345132
0.000398295
-0.00439119
0.00284663
-0.0516343
-0.0516343
-0.00195405
0.00195405
0.00490745
0.00691943
0.00813032
0.00869008
0.00874622
0.00843552
0.00787795
0.00717309
0.00639888
0.00561269
0.0048539
0.00414726
0.0035064
0.00293694
0.00243901
0.0020093
0.00164248
0.00133225
0.001072
0.000855279
0.000676039
0.00052877
0.000408554
0.000311076
0.000232588
0.00016987
0.000120175
8.11755e-05
5.09093e-05
2.77321e-05
1.02689e-05
-2.65526e-06
-1.19838e-05
-1.84635e-05
-2.27028e-05
-2.51993e-05
-2.63592e-05
-2.65129e-05
-2.59276e-05
-2.48179e-05
-2.33543e-05
-2.1671e-05
-1.98715e-05
-1.8035e-05
-1.62201e-05
-1.4469e-05
-1.28108e-05
-1.12644e-05
-9.84049e-06
-8.54359e-06
-7.37365e-06
-6.32721e-06
-5.39846e-06
-4.58003e-06
-3.8636e-06
-3.2404e-06
-2.70156e-06
-2.23838e-06
-1.8425e-06
-1.50606e-06
-1.22175e-06
-9.82873e-07
-7.8335e-07
-6.17711e-07
-4.81079e-07
-3.6914e-07
-2.781e-07
-2.04649e-07
-1.45913e-07
-9.94165e-08
-6.30323e-08
-3.49676e-08
-1.36676e-08
2.13296e-09
1.34908e-08
2.13431e-08
2.64646e-08
2.94873e-08
3.09209e-08
3.11747e-08
3.05682e-08
2.93705e-08
2.77192e-08
2.59847e-08
2.33916e-08
2.3132e-08
1.26785e-08
3.48206e-08
-8.2564e-08
2.34902e-07
-1.31505e-06
2.7762e-06
-1.73758e-05
3.22986e-05
-0.000218918
0.000330261
-0.00260555
0.00238736
-0.0290026
-0.0290026
1.8697e-10
-1.84045e-10
-6.94838e-10
-1.30614e-09
-1.97371e-09
-2.63691e-09
-3.22537e-09
-3.67235e-09
-3.92861e-09
-3.97193e-09
-3.80984e-09
-3.47588e-09
-3.0215e-09
-2.50619e-09
-1.98824e-09
-1.51744e-09
-1.13071e-09
-8.5053e-10
-6.857e-10
-6.33565e-10
-6.82985e-10
-8.17263e-10
-1.01659e-09
-1.25978e-09
-1.52537e-09
-1.79219e-09
-2.03979e-09
-2.24887e-09
-2.4022e-09
-2.48511e-09
-2.48906e-09
-2.40566e-09
-2.24924e-09
-2.00034e-09
-1.68759e-09
-1.33218e-09
-9.59645e-10
-5.96276e-10
-2.66131e-10
1.14206e-11
2.23391e-10
3.63919e-10
4.34092e-10
4.40973e-10
3.96086e-10
3.1363e-10
2.08702e-10
9.57318e-11
-1.27091e-11
-1.06678e-10
-1.79195e-10
-2.26214e-10
-2.4631e-10
-2.40202e-10
-2.1019e-10
-1.59602e-10
-9.22951e-11
-1.22421e-11
7.67814e-11
1.71416e-10
2.68851e-10
3.66883e-10
4.63919e-10
5.58928e-10
6.51367e-10
7.41079e-10
8.28181e-10
9.1297e-10
9.95751e-10
1.07687e-09
1.15629e-09
1.23396e-09
1.30945e-09
1.37941e-09
1.45334e-09
1.54005e-09
1.6276e-09
1.71357e-09
1.79507e-09
1.86902e-09
1.93233e-09
1.98221e-09
2.01646e-09
2.03358e-09
2.03325e-09
2.01507e-09
1.983e-09
1.93072e-09
1.88525e-09
1.78784e-09
1.7014e-09
1.58148e-09
1.47623e-09
1.35612e-09
1.2658e-09
1.16563e-09
1.12649e-09
1.01329e-09
1.13659e-09
6.99135e-10
1.37077e-09
1.40789e-09
0.00195405
-0.00195405
-0.00490746
-0.00691943
-0.00813032
-0.00869008
-0.00874623
-0.00843553
-0.00787796
-0.00717309
-0.00639889
-0.0056127
-0.0048539
-0.00414726
-0.00350641
-0.00293694
-0.00243901
-0.0020093
-0.00164248
-0.00133225
-0.001072
-0.000855281
-0.000676042
-0.000528772
-0.000408557
-0.00031108
-0.000232592
-0.000169875
-0.00012018
-8.11803e-05
-5.09141e-05
-2.77367e-05
-1.02732e-05
2.65146e-06
1.19806e-05
1.84609e-05
2.27009e-05
2.51981e-05
2.63586e-05
2.65128e-05
2.59279e-05
2.48184e-05
2.3355e-05
2.16716e-05
1.98721e-05
1.80355e-05
1.62203e-05
1.4469e-05
1.28107e-05
1.12641e-05
9.84008e-06
8.54313e-06
7.37317e-06
6.32676e-06
5.39809e-06
4.57977e-06
3.86348e-06
3.24044e-06
2.70178e-06
2.23879e-06
1.8431e-06
1.50685e-06
1.22273e-06
9.84041e-07
7.84699e-07
6.19235e-07
4.82774e-07
3.71001e-07
2.80125e-07
2.06833e-07
1.48254e-07
1.0191e-07
6.56776e-08
3.77447e-08
1.65979e-08
9.50588e-10
-1.02467e-08
-1.79365e-08
-2.29006e-08
-2.57785e-08
-2.7087e-08
-2.72412e-08
-2.65652e-08
-2.53308e-08
-2.36758e-08
-2.19708e-08
-1.94344e-08
-1.92633e-08
-8.90073e-09
-3.11876e-08
8.60208e-08
-2.31641e-07
1.3181e-06
-2.77334e-06
1.73784e-05
-3.2296e-05
0.00021892
-0.000330259
0.00260555
-0.00238736
0.0290026
0.0290026
0.00401801
-0.00401801
-0.00987185
-0.0135457
-0.0153924
-0.0158461
-0.015338
-0.0142366
-0.0128244
-0.0112996
-0.00979083
-0.00837399
-0.00708836
-0.00594912
-0.00495668
-0.00410299
-0.00337575
-0.002761
-0.00224467
-0.00181342
-0.00145505
-0.00115869
-0.000914798
-0.000715083
-0.000552402
-0.000420646
-0.000314606
-0.000229865
-0.000162689
-0.000109932
-6.89546e-05
-3.75353e-05
-1.38517e-05
3.76404e-06
1.6554e-05
2.54692e-05
3.13066e-05
3.4734e-05
3.63069e-05
3.64828e-05
3.56348e-05
3.40632e-05
3.2007e-05
2.96537e-05
2.71478e-05
2.45985e-05
2.20867e-05
1.96698e-05
1.73872e-05
1.52635e-05
1.33125e-05
1.15394e-05
9.94322e-06
8.5184e-06
7.25627e-06
6.14614e-06
5.17613e-06
4.33385e-06
3.60687e-06
2.98304e-06
2.45079e-06
1.99924e-06
1.61834e-06
1.2989e-06
1.0326e-06
8.11969e-07
6.3037e-07
4.8194e-07
3.61535e-07
2.64675e-07
1.87478e-07
1.26603e-07
7.91845e-08
4.2815e-08
1.54037e-08
-4.61805e-09
-1.87468e-08
-2.82944e-08
-3.43201e-08
-3.76714e-08
-3.90229e-08
-3.891e-08
-3.77473e-08
-3.58825e-08
-3.34855e-08
-3.10326e-08
-2.74877e-08
-2.68577e-08
-1.28648e-08
-3.82874e-08
1.20095e-07
-2.51494e-07
1.89174e-06
-3.03681e-06
2.59295e-05
-3.68608e-05
0.000345135
-0.000398293
0.0043912
-0.00284662
0.0516343
0.0516343
0.00621567
-0.00621567
-0.0142999
-0.0183624
-0.0194157
-0.0185586
-0.0167091
-0.0144992
-0.0122985
-0.0102885
-0.00853603
-0.00704673
-0.00579864
-0.00476022
-0.00389924
-0.00318648
-0.00259682
-0.00210924
-0.00170635
-0.00137381
-0.00109978
-0.000874466
-0.000689742
-0.000538828
-0.000416056
-0.000316675
-0.000236696
-0.000172766
-0.000122068
-8.22333e-05
-5.12833e-05
-2.75377e-05
-9.65205e-06
3.77075e-06
1.35601e-05
2.03693e-05
2.47871e-05
2.73275e-05
2.84267e-05
2.84469e-05
2.76833e-05
2.63728e-05
2.47028e-05
2.28187e-05
2.08318e-05
1.88255e-05
1.68602e-05
1.49787e-05
1.32094e-05
1.15696e-05
1.00684e-05
8.70851e-06
7.48785e-06
6.40121e-06
5.44113e-06
4.59875e-06
3.86442e-06
3.22824e-06
2.68036e-06
2.21126e-06
1.81188e-06
1.47381e-06
1.18926e-06
9.51174e-07
7.53157e-07
5.89508e-07
4.55165e-07
3.45673e-07
2.57131e-07
1.86149e-07
1.29798e-07
8.55636e-08
5.12912e-08
2.51899e-08
5.68302e-09
-8.21944e-09
-1.78597e-08
-2.42401e-08
-2.81391e-08
-3.01653e-08
-3.07965e-08
-3.04102e-08
-2.92949e-08
-2.77032e-08
-2.57232e-08
-2.37731e-08
-2.0786e-08
-2.03451e-08
-7.49902e-09
-2.54227e-08
1.20005e-07
-1.24462e-07
1.81627e-06
-1.24996e-06
2.50797e-05
-1.34164e-05
0.000347831
-0.000140672
0.00482119
-0.000857419
0.061277
0.061277
0.00751344
-0.00751344
-0.0146552
-0.0162812
-0.0149618
-0.0125487
-0.0100747
-0.0079588
-0.00628243
-0.00499021
-0.00399567
-0.00322206
-0.00261164
-0.00212353
-0.00172905
-0.00140773
-0.00114463
-0.000928458
-0.000750535
-0.000604012
-0.000483416
-0.00038431
-0.000303062
-0.00023667
-0.000182642
-0.00013889
-0.000103669
-7.55098e-05
-5.3177e-05
-3.56323e-05
-2.20056e-05
-1.15544e-05
-3.68756e-06
2.31646e-06
6.66791e-06
9.6508e-06
1.15442e-05
1.25925e-05
1.29997e-05
1.29328e-05
1.25257e-05
1.18849e-05
1.10936e-05
1.0216e-05
9.30072e-06
8.38378e-06
7.49111e-06
6.64069e-06
5.84427e-06
5.1088e-06
4.43758e-06
3.8312e-06
3.2883e-06
2.80614e-06
2.38105e-06
2.00884e-06
1.68501e-06
1.40499e-06
1.16428e-06
9.58543e-07
7.83708e-07
6.35977e-07
5.11866e-07
4.08216e-07
3.22182e-07
2.51229e-07
1.93114e-07
1.45864e-07
1.07757e-07
7.73007e-08
5.32055e-08
3.43676e-08
1.9847e-08
8.84919e-09
7.85995e-10
-4.85728e-09
-8.73507e-09
-1.12701e-08
-1.27798e-08
-1.35125e-08
-1.36644e-08
-1.33927e-08
-1.28167e-08
-1.20461e-08
-1.1102e-08
-1.01965e-08
-8.67806e-09
-8.42842e-09
-6.64311e-10
-6.7396e-09
8.65624e-08
1.06134e-08
1.25994e-06
4.79278e-07
1.73478e-05
1.02469e-05
0.000240812
0.00016871
0.00349307
0.00153827
0.0477942
0.0477942
0
0
0
0
0
0
0
0
0
0
0
0
0
0
0
0
0
0
0
0
0
0
0
0
0
0
0
0
0
0
0
0
0
0
0
0
0
0
0
0
0
0
0
0
0
0
0
0
0
0
0
0
0
0
0
0
0
0
0
0
0
0
0
0
0
0
0
0
0
0
0
0
0
0
0
0
0
0
0
0
0
0
0
0
0
0
0
0
0
0
0
0
0
0
0
0
0
0
0
0
0
0
0
0
0
0
0
0
0
0
0
0
0
0
0
0
0
0
0
0
0
0
0
0
0
0
0
0
0
0
0
0
0
0
0
0
0
0
0
0
0
0
0
0
0
0
0
0
0
0
0
0
0
0
0
0
0
0
0
0
0
0
0
0
0
0
0
0
0
0
0
0
0
0
0
0
0
0
0
0
0
0
0
0
0
0
0
0
0
0
0
0
0
0
0
0
0
0
0
0
0
0
0
0
