# vtk DataFile Version 2.0
FlowField
ASCII
DATASET STRUCTURED_GRID
DIMENSIONS 102 1 12 
POINTS 1224 double
0 0 0
0.4 0 0
0.8 0 0
1.2 0 0
1.6 0 0
2 0 0
2.4 0 0
2.8 0 0
3.2 0 0
3.6 0 0
4 0 0
4.4 0 0
4.8 0 0
5.2 0 0
5.6 0 0
6 0 0
6.4 0 0
6.8 0 0
7.2 0 0
7.6 0 0
8 0 0
8.4 0 0
8.8 0 0
9.2 0 0
9.6 0 0
10 0 0
10.4 0 0
10.8 0 0
11.2 0 0
11.6 0 0
12 0 0
12.4 0 0
12.8 0 0
13.2 0 0
13.6 0 0
14 0 0
14.4 0 0
14.8 0 0
15.2 0 0
15.6 0 0
16 0 0
16.4 0 0
16.8 0 0
17.2 0 0
17.6 0 0
18 0 0
18.4 0 0
18.8 0 0
19.2 0 0
19.6 0 0
20 0 0
20.4 0 0
20.8 0 0
21.2 0 0
21.6 0 0
22 0 0
22.4 0 0
22.8 0 0
23.2 0 0
23.6 0 0
24 0 0
24.4 0 0
24.8 0 0
25.2 0 0
25.6 0 0
26 0 0
26.4 0 0
26.8 0 0
27.2 0 0
27.6 0 0
28 0 0
28.4 0 0
28.8 0 0
29.2 0 0
29.6 0 0
30 0 0
30.4 0 0
30.8 0 0
31.2 0 0
31.6 0 0
32 0 0
32.4 0 0
32.8 0 0
33.2 0 0
33.6 0 0
34 0 0
34.4 0 0
34.8 0 0
35.2 0 0
35.6 0 0
36 0 0
36.4 0 0
36.8 0 0
37.2 0 0
37.6 0 0
38 0 0
38.4 0 0
38.8 0 0
39.2 0 0
39.6 0 0
40 0 0
40.4 0 0
0 0.1 0
0.4 0.1 0
0.8 0.1 0
1.2 0.1 0
1.6 0.1 0
2 0.1 0
2.4 0.1 0
2.8 0.1 0
3.2 0.1 0
3.6 0.1 0
4 0.1 0
4.4 0.1 0
4.8 0.1 0
5.2 0.1 0
5.6 0.1 0
6 0.1 0
6.4 0.1 0
6.8 0.1 0
7.2 0.1 0
7.6 0.1 0
8 0.1 0
8.4 0.1 0
8.8 0.1 0
9.2 0.1 0
9.6 0.1 0
10 0.1 0
10.4 0.1 0
10.8 0.1 0
11.2 0.1 0
11.6 0.1 0
12 0.1 0
12.4 0.1 0
12.8 0.1 0
13.2 0.1 0
13.6 0.1 0
14 0.1 0
14.4 0.1 0
14.8 0.1 0
15.2 0.1 0
15.6 0.1 0
16 0.1 0
16.4 0.1 0
16.8 0.1 0
17.2 0.1 0
17.6 0.1 0
18 0.1 0
18.4 0.1 0
18.8 0.1 0
19.2 0.1 0
19.6 0.1 0
20 0.1 0
20.4 0.1 0
20.8 0.1 0
21.2 0.1 0
21.6 0.1 0
22 0.1 0
22.4 0.1 0
22.8 0.1 0
23.2 0.1 0
23.6 0.1 0
24 0.1 0
24.4 0.1 0
24.8 0.1 0
25.2 0.1 0
25.6 0.1 0
26 0.1 0
26.4 0.1 0
26.8 0.1 0
27.2 0.1 0
27.6 0.1 0
28 0.1 0
28.4 0.1 0
28.8 0.1 0
29.2 0.1 0
29.6 0.1 0
30 0.1 0
30.4 0.1 0
30.8 0.1 0
31.2 0.1 0
31.6 0.1 0
32 0.1 0
32.4 0.1 0
32.8 0.1 0
33.2 0.1 0
33.6 0.1 0
34 0.1 0
34.4 0.1 0
34.8 0.1 0
35.2 0.1 0
35.6 0.1 0
36 0.1 0
36.4 0.1 0
36.8 0.1 0
37.2 0.1 0
37.6 0.1 0
38 0.1 0
38.4 0.1 0
38.8 0.1 0
39.2 0.1 0
39.6 0.1 0
40 0.1 0
40.4 0.1 0
0 0.2 0
0.4 0.2 0
0.8 0.2 0
1.2 0.2 0
1.6 0.2 0
2 0.2 0
2.4 0.2 0
2.8 0.2 0
3.2 0.2 0
3.6 0.2 0
4 0.2 0
4.4 0.2 0
4.8 0.2 0
5.2 0.2 0
5.6 0.2 0
6 0.2 0
6.4 0.2 0
6.8 0.2 0
7.2 0.2 0
7.6 0.2 0
8 0.2 0
8.4 0.2 0
8.8 0.2 0
9.2 0.2 0
9.6 0.2 0
10 0.2 0
10.4 0.2 0
10.8 0.2 0
11.2 0.2 0
11.6 0.2 0
12 0.2 0
12.4 0.2 0
12.8 0.2 0
13.2 0.2 0
13.6 0.2 0
14 0.2 0
14.4 0.2 0
14.8 0.2 0
15.2 0.2 0
15.6 0.2 0
16 0.2 0
16.4 0.2 0
16.8 0.2 0
17.2 0.2 0
17.6 0.2 0
18 0.2 0
18.4 0.2 0
18.8 0.2 0
19.2 0.2 0
19.6 0.2 0
20 0.2 0
20.4 0.2 0
20.8 0.2 0
21.2 0.2 0
21.6 0.2 0
22 0.2 0
22.4 0.2 0
22.8 0.2 0
23.2 0.2 0
23.6 0.2 0
24 0.2 0
24.4 0.2 0
24.8 0.2 0
25.2 0.2 0
25.6 0.2 0
26 0.2 0
26.4 0.2 0
26.8 0.2 0
27.2 0.2 0
27.6 0.2 0
28 0.2 0
28.4 0.2 0
28.8 0.2 0
29.2 0.2 0
29.6 0.2 0
30 0.2 0
30.4 0.2 0
30.8 0.2 0
31.2 0.2 0
31.6 0.2 0
32 0.2 0
32.4 0.2 0
32.8 0.2 0
33.2 0.2 0
33.6 0.2 0
34 0.2 0
34.4 0.2 0
34.8 0.2 0
35.2 0.2 0
35.6 0.2 0
36 0.2 0
36.4 0.2 0
36.8 0.2 0
37.2 0.2 0
37.6 0.2 0
38 0.2 0
38.4 0.2 0
38.8 0.2 0
39.2 0.2 0
39.6 0.2 0
40 0.2 0
40.4 0.2 0
0 0.3 0
0.4 0.3 0
0.8 0.3 0
1.2 0.3 0
1.6 0.3 0
2 0.3 0
2.4 0.3 0
2.8 0.3 0
3.2 0.3 0
3.6 0.3 0
4 0.3 0
4.4 0.3 0
4.8 0.3 0
5.2 0.3 0
5.6 0.3 0
6 0.3 0
6.4 0.3 0
6.8 0.3 0
7.2 0.3 0
7.6 0.3 0
8 0.3 0
8.4 0.3 0
8.8 0.3 0
9.2 0.3 0
9.6 0.3 0
10 0.3 0
10.4 0.3 0
10.8 0.3 0
11.2 0.3 0
11.6 0.3 0
12 0.3 0
12.4 0.3 0
12.8 0.3 0
13.2 0.3 0
13.6 0.3 0
14 0.3 0
14.4 0.3 0
14.8 0.3 0
15.2 0.3 0
15.6 0.3 0
16 0.3 0
16.4 0.3 0
16.8 0.3 0
17.2 0.3 0
17.6 0.3 0
18 0.3 0
18.4 0.3 0
18.8 0.3 0
19.2 0.3 0
19.6 0.3 0
20 0.3 0
20.4 0.3 0
20.8 0.3 0
21.2 0.3 0
21.6 0.3 0
22 0.3 0
22.4 0.3 0
22.8 0.3 0
23.2 0.3 0
23.6 0.3 0
24 0.3 0
24.4 0.3 0
24.8 0.3 0
25.2 0.3 0
25.6 0.3 0
26 0.3 0
26.4 0.3 0
26.8 0.3 0
27.2 0.3 0
27.6 0.3 0
28 0.3 0
28.4 0.3 0
28.8 0.3 0
29.2 0.3 0
29.6 0.3 0
30 0.3 0
30.4 0.3 0
30.8 0.3 0
31.2 0.3 0
31.6 0.3 0
32 0.3 0
32.4 0.3 0
32.8 0.3 0
33.2 0.3 0
33.6 0.3 0
34 0.3 0
34.4 0.3 0
34.8 0.3 0
35.2 0.3 0
35.6 0.3 0
36 0.3 0
36.4 0.3 0
36.8 0.3 0
37.2 0.3 0
37.6 0.3 0
38 0.3 0
38.4 0.3 0
38.8 0.3 0
39.2 0.3 0
39.6 0.3 0
40 0.3 0
40.4 0.3 0
0 0.4 0
0.4 0.4 0
0.8 0.4 0
1.2 0.4 0
1.6 0.4 0
2 0.4 0
2.4 0.4 0
2.8 0.4 0
3.2 0.4 0
3.6 0.4 0
4 0.4 0
4.4 0.4 0
4.8 0.4 0
5.2 0.4 0
5.6 0.4 0
6 0.4 0
6.4 0.4 0
6.8 0.4 0
7.2 0.4 0
7.6 0.4 0
8 0.4 0
8.4 0.4 0
8.8 0.4 0
9.2 0.4 0
9.6 0.4 0
10 0.4 0
10.4 0.4 0
10.8 0.4 0
11.2 0.4 0
11.6 0.4 0
12 0.4 0
12.4 0.4 0
12.8 0.4 0
13.2 0.4 0
13.6 0.4 0
14 0.4 0
14.4 0.4 0
14.8 0.4 0
15.2 0.4 0
15.6 0.4 0
16 0.4 0
16.4 0.4 0
16.8 0.4 0
17.2 0.4 0
17.6 0.4 0
18 0.4 0
18.4 0.4 0
18.8 0.4 0
19.2 0.4 0
19.6 0.4 0
20 0.4 0
20.4 0.4 0
20.8 0.4 0
21.2 0.4 0
21.6 0.4 0
22 0.4 0
22.4 0.4 0
22.8 0.4 0
23.2 0.4 0
23.6 0.4 0
24 0.4 0
24.4 0.4 0
24.8 0.4 0
25.2 0.4 0
25.6 0.4 0
26 0.4 0
26.4 0.4 0
26.8 0.4 0
27.2 0.4 0
27.6 0.4 0
28 0.4 0
28.4 0.4 0
28.8 0.4 0
29.2 0.4 0
29.6 0.4 0
30 0.4 0
30.4 0.4 0
30.8 0.4 0
31.2 0.4 0
31.6 0.4 0
32 0.4 0
32.4 0.4 0
32.8 0.4 0
33.2 0.4 0
33.6 0.4 0
34 0.4 0
34.4 0.4 0
34.8 0.4 0
35.2 0.4 0
35.6 0.4 0
36 0.4 0
36.4 0.4 0
36.8 0.4 0
37.2 0.4 0
37.6 0.4 0
38 0.4 0
38.4 0.4 0
38.8 0.4 0
39.2 0.4 0
39.6 0.4 0
40 0.4 0
40.4 0.4 0
0 0.5 0
0.4 0.5 0
0.8 0.5 0
1.2 0.5 0
1.6 0.5 0
2 0.5 0
2.4 0.5 0
2.8 0.5 0
3.2 0.5 0
3.6 0.5 0
4 0.5 0
4.4 0.5 0
4.8 0.5 0
5.2 0.5 0
5.6 0.5 0
6 0.5 0
6.4 0.5 0
6.8 0.5 0
7.2 0.5 0
7.6 0.5 0
8 0.5 0
8.4 0.5 0
8.8 0.5 0
9.2 0.5 0
9.6 0.5 0
10 0.5 0
10.4 0.5 0
10.8 0.5 0
11.2 0.5 0
11.6 0.5 0
12 0.5 0
12.4 0.5 0
12.8 0.5 0
13.2 0.5 0
13.6 0.5 0
14 0.5 0
14.4 0.5 0
14.8 0.5 0
15.2 0.5 0
15.6 0.5 0
16 0.5 0
16.4 0.5 0
16.8 0.5 0
17.2 0.5 0
17.6 0.5 0
18 0.5 0
18.4 0.5 0
18.8 0.5 0
19.2 0.5 0
19.6 0.5 0
20 0.5 0
20.4 0.5 0
20.8 0.5 0
21.2 0.5 0
21.6 0.5 0
22 0.5 0
22.4 0.5 0
22.8 0.5 0
23.2 0.5 0
23.6 0.5 0
24 0.5 0
24.4 0.5 0
24.8 0.5 0
25.2 0.5 0
25.6 0.5 0
26 0.5 0
26.4 0.5 0
26.8 0.5 0
27.2 0.5 0
27.6 0.5 0
28 0.5 0
28.4 0.5 0
28.8 0.5 0
29.2 0.5 0
29.6 0.5 0
30 0.5 0
30.4 0.5 0
30.8 0.5 0
31.2 0.5 0
31.6 0.5 0
32 0.5 0
32.4 0.5 0
32.8 0.5 0
33.2 0.5 0
33.6 0.5 0
34 0.5 0
34.4 0.5 0
34.8 0.5 0
35.2 0.5 0
35.6 0.5 0
36 0.5 0
36.4 0.5 0
36.8 0.5 0
37.2 0.5 0
37.6 0.5 0
38 0.5 0
38.4 0.5 0
38.8 0.5 0
39.2 0.5 0
39.6 0.5 0
40 0.5 0
40.4 0.5 0
0 0.6 0
0.4 0.6 0
0.8 0.6 0
1.2 0.6 0
1.6 0.6 0
2 0.6 0
2.4 0.6 0
2.8 0.6 0
3.2 0.6 0
3.6 0.6 0
4 0.6 0
4.4 0.6 0
4.8 0.6 0
5.2 0.6 0
5.6 0.6 0
6 0.6 0
6.4 0.6 0
6.8 0.6 0
7.2 0.6 0
7.6 0.6 0
8 0.6 0
8.4 0.6 0
8.8 0.6 0
9.2 0.6 0
9.6 0.6 0
10 0.6 0
10.4 0.6 0
10.8 0.6 0
11.2 0.6 0
11.6 0.6 0
12 0.6 0
12.4 0.6 0
12.8 0.6 0
13.2 0.6 0
13.6 0.6 0
14 0.6 0
14.4 0.6 0
14.8 0.6 0
15.2 0.6 0
15.6 0.6 0
16 0.6 0
16.4 0.6 0
16.8 0.6 0
17.2 0.6 0
17.6 0.6 0
18 0.6 0
18.4 0.6 0
18.8 0.6 0
19.2 0.6 0
19.6 0.6 0
20 0.6 0
20.4 0.6 0
20.8 0.6 0
21.2 0.6 0
21.6 0.6 0
22 0.6 0
22.4 0.6 0
22.8 0.6 0
23.2 0.6 0
23.6 0.6 0
24 0.6 0
24.4 0.6 0
24.8 0.6 0
25.2 0.6 0
25.6 0.6 0
26 0.6 0
26.4 0.6 0
26.8 0.6 0
27.2 0.6 0
27.6 0.6 0
28 0.6 0
28.4 0.6 0
28.8 0.6 0
29.2 0.6 0
29.6 0.6 0
30 0.6 0
30.4 0.6 0
30.8 0.6 0
31.2 0.6 0
31.6 0.6 0
32 0.6 0
32.4 0.6 0
32.8 0.6 0
33.2 0.6 0
33.6 0.6 0
34 0.6 0
34.4 0.6 0
34.8 0.6 0
35.2 0.6 0
35.6 0.6 0
36 0.6 0
36.4 0.6 0
36.8 0.6 0
37.2 0.6 0
37.6 0.6 0
38 0.6 0
38.4 0.6 0
38.8 0.6 0
39.2 0.6 0
39.6 0.6 0
40 0.6 0
40.4 0.6 0
0 0.7 0
0.4 0.7 0
0.8 0.7 0
1.2 0.7 0
1.6 0.7 0
2 0.7 0
2.4 0.7 0
2.8 0.7 0
3.2 0.7 0
3.6 0.7 0
4 0.7 0
4.4 0.7 0
4.8 0.7 0
5.2 0.7 0
5.6 0.7 0
6 0.7 0
6.4 0.7 0
6.8 0.7 0
7.2 0.7 0
7.6 0.7 0
8 0.7 0
8.4 0.7 0
8.8 0.7 0
9.2 0.7 0
9.6 0.7 0
10 0.7 0
10.4 0.7 0
10.8 0.7 0
11.2 0.7 0
11.6 0.7 0
12 0.7 0
12.4 0.7 0
12.8 0.7 0
13.2 0.7 0
13.6 0.7 0
14 0.7 0
14.4 0.7 0
14.8 0.7 0
15.2 0.7 0
15.6 0.7 0
16 0.7 0
16.4 0.7 0
16.8 0.7 0
17.2 0.7 0
17.6 0.7 0
18 0.7 0
18.4 0.7 0
18.8 0.7 0
19.2 0.7 0
19.6 0.7 0
20 0.7 0
20.4 0.7 0
20.8 0.7 0
21.2 0.7 0
21.6 0.7 0
22 0.7 0
22.4 0.7 0
22.8 0.7 0
23.2 0.7 0
23.6 0.7 0
24 0.7 0
24.4 0.7 0
24.8 0.7 0
25.2 0.7 0
25.6 0.7 0
26 0.7 0
26.4 0.7 0
26.8 0.7 0
27.2 0.7 0
27.6 0.7 0
28 0.7 0
28.4 0.7 0
28.8 0.7 0
29.2 0.7 0
29.6 0.7 0
30 0.7 0
30.4 0.7 0
30.8 0.7 0
31.2 0.7 0
31.6 0.7 0
32 0.7 0
32.4 0.7 0
32.8 0.7 0
33.2 0.7 0
33.6 0.7 0
34 0.7 0
34.4 0.7 0
34.8 0.7 0
35.2 0.7 0
35.6 0.7 0
36 0.7 0
36.4 0.7 0
36.8 0.7 0
37.2 0.7 0
37.6 0.7 0
38 0.7 0
38.4 0.7 0
38.8 0.7 0
39.2 0.7 0
39.6 0.7 0
40 0.7 0
40.4 0.7 0
0 0.8 0
0.4 0.8 0
0.8 0.8 0
1.2 0.8 0
1.6 0.8 0
2 0.8 0
2.4 0.8 0
2.8 0.8 0
3.2 0.8 0
3.6 0.8 0
4 0.8 0
4.4 0.8 0
4.8 0.8 0
5.2 0.8 0
5.6 0.8 0
6 0.8 0
6.4 0.8 0
6.8 0.8 0
7.2 0.8 0
7.6 0.8 0
8 0.8 0
8.4 0.8 0
8.8 0.8 0
9.2 0.8 0
9.6 0.8 0
10 0.8 0
10.4 0.8 0
10.8 0.8 0
11.2 0.8 0
11.6 0.8 0
12 0.8 0
12.4 0.8 0
12.8 0.8 0
13.2 0.8 0
13.6 0.8 0
14 0.8 0
14.4 0.8 0
14.8 0.8 0
15.2 0.8 0
15.6 0.8 0
16 0.8 0
16.4 0.8 0
16.8 0.8 0
17.2 0.8 0
17.6 0.8 0
18 0.8 0
18.4 0.8 0
18.8 0.8 0
19.2 0.8 0
19.6 0.8 0
20 0.8 0
20.4 0.8 0
20.8 0.8 0
21.2 0.8 0
21.6 0.8 0
22 0.8 0
22.4 0.8 0
22.8 0.8 0
23.2 0.8 0
23.6 0.8 0
24 0.8 0
24.4 0.8 0
24.8 0.8 0
25.2 0.8 0
25.6 0.8 0
26 0.8 0
26.4 0.8 0
26.8 0.8 0
27.2 0.8 0
27.6 0.8 0
28 0.8 0
28.4 0.8 0
28.8 0.8 0
29.2 0.8 0
29.6 0.8 0
30 0.8 0
30.4 0.8 0
30.8 0.8 0
31.2 0.8 0
31.6 0.8 0
32 0.8 0
32.4 0.8 0
32.8 0.8 0
33.2 0.8 0
33.6 0.8 0
34 0.8 0
34.4 0.8 0
34.8 0.8 0
35.2 0.8 0
35.6 0.8 0
36 0.8 0
36.4 0.8 0
36.8 0.8 0
37.2 0.8 0
37.6 0.8 0
38 0.8 0
38.4 0.8 0
38.8 0.8 0
39.2 0.8 0
39.6 0.8 0
40 0.8 0
40.4 0.8 0
0 0.9 0
0.4 0.9 0
0.8 0.9 0
1.2 0.9 0
1.6 0.9 0
2 0.9 0
2.4 0.9 0
2.8 0.9 0
3.2 0.9 0
3.6 0.9 0
4 0.9 0
4.4 0.9 0
4.8 0.9 0
5.2 0.9 0
5.6 0.9 0
6 0.9 0
6.4 0.9 0
6.8 0.9 0
7.2 0.9 0
7.6 0.9 0
8 0.9 0
8.4 0.9 0
8.8 0.9 0
9.2 0.9 0
9.6 0.9 0
10 0.9 0
10.4 0.9 0
10.8 0.9 0
11.2 0.9 0
11.6 0.9 0
12 0.9 0
12.4 0.9 0
12.8 0.9 0
13.2 0.9 0
13.6 0.9 0
14 0.9 0
14.4 0.9 0
14.8 0.9 0
15.2 0.9 0
15.6 0.9 0
16 0.9 0
16.4 0.9 0
16.8 0.9 0
17.2 0.9 0
17.6 0.9 0
18 0.9 0
18.4 0.9 0
18.8 0.9 0
19.2 0.9 0
19.6 0.9 0
20 0.9 0
20.4 0.9 0
20.8 0.9 0
21.2 0.9 0
21.6 0.9 0
22 0.9 0
22.4 0.9 0
22.8 0.9 0
23.2 0.9 0
23.6 0.9 0
24 0.9 0
24.4 0.9 0
24.8 0.9 0
25.2 0.9 0
25.6 0.9 0
26 0.9 0
26.4 0.9 0
26.8 0.9 0
27.2 0.9 0
27.6 0.9 0
28 0.9 0
28.4 0.9 0
28.8 0.9 0
29.2 0.9 0
29.6 0.9 0
30 0.9 0
30.4 0.9 0
30.8 0.9 0
31.2 0.9 0
31.6 0.9 0
32 0.9 0
32.4 0.9 0
32.8 0.9 0
33.2 0.9 0
33.6 0.9 0
34 0.9 0
34.4 0.9 0
34.8 0.9 0
35.2 0.9 0
35.6 0.9 0
36 0.9 0
36.4 0.9 0
36.8 0.9 0
37.2 0.9 0
37.6 0.9 0
38 0.9 0
38.4 0.9 0
38.8 0.9 0
39.2 0.9 0
39.6 0.9 0
40 0.9 0
40.4 0.9 0
0 1 0
0.4 1 0
0.8 1 0
1.2 1 0
1.6 1 0
2 1 0
2.4 1 0
2.8 1 0
3.2 1 0
3.6 1 0
4 1 0
4.4 1 0
4.8 1 0
5.2 1 0
5.6 1 0
6 1 0
6.4 1 0
6.8 1 0
7.2 1 0
7.6 1 0
8 1 0
8.4 1 0
8.8 1 0
9.2 1 0
9.6 1 0
10 1 0
10.4 1 0
10.8 1 0
11.2 1 0
11.6 1 0
12 1 0
12.4 1 0
12.8 1 0
13.2 1 0
13.6 1 0
14 1 0
14.4 1 0
14.8 1 0
15.2 1 0
15.6 1 0
16 1 0
16.4 1 0
16.8 1 0
17.2 1 0
17.6 1 0
18 1 0
18.4 1 0
18.8 1 0
19.2 1 0
19.6 1 0
20 1 0
20.4 1 0
20.8 1 0
21.2 1 0
21.6 1 0
22 1 0
22.4 1 0
22.8 1 0
23.2 1 0
23.6 1 0
24 1 0
24.4 1 0
24.8 1 0
25.2 1 0
25.6 1 0
26 1 0
26.4 1 0
26.8 1 0
27.2 1 0
27.6 1 0
28 1 0
28.4 1 0
28.8 1 0
29.2 1 0
29.6 1 0
30 1 0
30.4 1 0
30.8 1 0
31.2 1 0
31.6 1 0
32 1 0
32.4 1 0
32.8 1 0
33.2 1 0
33.6 1 0
34 1 0
34.4 1 0
34.8 1 0
35.2 1 0
35.6 1 0
36 1 0
36.4 1 0
36.8 1 0
37.2 1 0
37.6 1 0
38 1 0
38.4 1 0
38.8 1 0
39.2 1 0
39.6 1 0
40 1 0
40.4 1 0
0 1.1 0
0.4 1.1 0
0.8 1.1 0
1.2 1.1 0
1.6 1.1 0
2 1.1 0
2.4 1.1 0
2.8 1.1 0
3.2 1.1 0
3.6 1.1 0
4 1.1 0
4.4 1.1 0
4.8 1.1 0
5.2 1.1 0
5.6 1.1 0
6 1.1 0
6.4 1.1 0
6.8 1.1 0
7.2 1.1 0
7.6 1.1 0
8 1.1 0
8.4 1.1 0
8.8 1.1 0
9.2 1.1 0
9.6 1.1 0
10 1.1 0
10.4 1.1 0
10.8 1.1 0
11.2 1.1 0
11.6 1.1 0
12 1.1 0
12.4 1.1 0
12.8 1.1 0
13.2 1.1 0
13.6 1.1 0
14 1.1 0
14.4 1.1 0
14.8 1.1 0
15.2 1.1 0
15.6 1.1 0
16 1.1 0
16.4 1.1 0
16.8 1.1 0
17.2 1.1 0
17.6 1.1 0
18 1.1 0
18.4 1.1 0
18.8 1.1 0
19.2 1.1 0
19.6 1.1 0
20 1.1 0
20.4 1.1 0
20.8 1.1 0
21.2 1.1 0
21.6 1.1 0
22 1.1 0
22.4 1.1 0
22.8 1.1 0
23.2 1.1 0
23.6 1.1 0
24 1.1 0
24.4 1.1 0
24.8 1.1 0
25.2 1.1 0
25.6 1.1 0
26 1.1 0
26.4 1.1 0
26.8 1.1 0
27.2 1.1 0
27.6 1.1 0
28 1.1 0
28.4 1.1 0
28.8 1.1 0
29.2 1.1 0
29.6 1.1 0
30 1.1 0
30.4 1.1 0
30.8 1.1 0
31.2 1.1 0
31.6 1.1 0
32 1.1 0
32.4 1.1 0
32.8 1.1 0
33.2 1.1 0
33.6 1.1 0
34 1.1 0
34.4 1.1 0
34.8 1.1 0
35.2 1.1 0
35.6 1.1 0
36 1.1 0
36.4 1.1 0
36.8 1.1 0
37.2 1.1 0
37.6 1.1 0
38 1.1 0
38.4 1.1 0
38.8 1.1 0
39.2 1.1 0
39.6 1.1 0
40 1.1 0
40.4 1.1 0

POINT_DATA 1224

SCALARS u double
LOOKUP_TABLE default
-1
-0.80718
-0.659027
-0.550101
-0.474363
-0.423321
-0.389
-0.365438
-0.348706
-0.336385
-0.327021
-0.319734
-0.313975
-0.309378
-0.305692
-0.302731
-0.300355
-0.298453
-0.296939
-0.295741
-0.2948
-0.294071
-0.293512
-0.293091
-0.29278
-0.292559
-0.292407
-0.29231
-0.292256
-0.292235
-0.29224
-0.292264
-0.292306
-0.292362
-0.292426
-0.292495
-0.292567
-0.292638
-0.292708
-0.292773
-0.292835
-0.29289
-0.292939
-0.292981
-0.293016
-0.293045
-0.293068
-0.293086
-0.293099
-0.293108
-0.293115
-0.293119
-0.293121
-0.293123
-0.293123
-0.293123
-0.293122
-0.293122
-0.293121
-0.293121
-0.29312
-0.293119
-0.293119
-0.293119
-0.293118
-0.293118
-0.293118
-0.293118
-0.293118
-0.293118
-0.293118
-0.293118
-0.293118
-0.293118
-0.293118
-0.293118
-0.293118
-0.293118
-0.293118
-0.293118
-0.293118
-0.293118
-0.293118
-0.293118
-0.293118
-0.293118
-0.293118
-0.293118
-0.293118
-0.293118
-0.293118
-0.29312
-0.293129
-0.29315
-0.293284
-0.293604
-0.295481
-0.300252
-0.327457
-0.370974
-1
-0.370974
1
0.80718
0.659027
0.550101
0.474363
0.423321
0.389
0.365438
0.348706
0.336385
0.327021
0.319734
0.313975
0.309378
0.305692
0.302731
0.300355
0.298453
0.296939
0.295741
0.2948
0.294071
0.293512
0.293091
0.29278
0.292559
0.292407
0.29231
0.292256
0.292235
0.29224
0.292263
0.292306
0.292361
0.292425
0.292494
0.292566
0.292637
0.292706
0.292772
0.292833
0.292888
0.292937
0.292979
0.293015
0.293044
0.293067
0.293084
0.293098
0.293107
0.293114
0.293118
0.29312
0.293122
0.293122
0.293122
0.293121
0.293121
0.29312
0.29312
0.293119
0.293118
0.293118
0.293118
0.293117
0.293117
0.293117
0.293117
0.293117
0.293117
0.293117
0.293117
0.293117
0.293117
0.293117
0.293117
0.293117
0.293117
0.293117
0.293117
0.293117
0.293117
0.293117
0.293117
0.293117
0.293116
0.293116
0.293116
0.293117
0.293117
0.293117
0.293119
0.293128
0.293149
0.293283
0.293603
0.29548
0.300251
0.327456
0.370974
1
0.370974
1
1.02373
1.02809
1.01223
0.983935
0.950688
0.917729
0.887957
0.86251
0.841467
0.824393
0.810677
0.799714
0.790972
0.784012
0.778481
0.774096
0.770634
0.767916
0.765797
0.764162
0.762915
0.76198
0.761294
0.760804
0.76047
0.760256
0.760136
0.760087
0.760091
0.760136
0.76021
0.760306
0.76042
0.760547
0.760684
0.760826
0.760968
0.761108
0.761242
0.761367
0.761481
0.761582
0.76167
0.761743
0.761804
0.761851
0.761888
0.761915
0.761934
0.761947
0.761955
0.76196
0.761962
0.761962
0.761961
0.76196
0.761958
0.761957
0.761956
0.761954
0.761953
0.761953
0.761952
0.761951
0.761951
0.761951
0.76195
0.76195
0.76195
0.76195
0.76195
0.76195
0.76195
0.76195
0.76195
0.76195
0.76195
0.76195
0.76195
0.76195
0.76195
0.76195
0.76195
0.76195
0.76195
0.761949
0.761949
0.761949
0.761949
0.76195
0.76195
0.761954
0.76196
0.762015
0.762091
0.762962
0.76377
0.777485
0.791805
1
0.791807
1
1.04017
1.08473
1.11989
1.14301
1.15539
1.15973
1.15877
1.15476
1.1493
1.14344
1.13781
1.13272
1.12832
1.12461
1.12157
1.11911
1.11717
1.11565
1.11449
1.11361
1.11297
1.11251
1.1122
1.112
1.11188
1.11183
1.11182
1.11185
1.1119
1.11197
1.11205
1.11214
1.11222
1.11231
1.1124
1.11248
1.11257
1.11266
1.11274
1.11282
1.1129
1.11297
1.11303
1.11309
1.11313
1.11317
1.1132
1.11322
1.11324
1.11325
1.11326
1.11326
1.11326
1.11326
1.11326
1.11326
1.11326
1.11326
1.11326
1.11326
1.11326
1.11325
1.11325
1.11325
1.11325
1.11325
1.11325
1.11325
1.11325
1.11325
1.11325
1.11325
1.11325
1.11325
1.11325
1.11325
1.11325
1.11325
1.11325
1.11325
1.11325
1.11325
1.11325
1.11325
1.11325
1.11325
1.11325
1.11325
1.11325
1.11325
1.11325
1.11325
1.11324
1.11324
1.11313
1.1131
1.1116
1.1095
1.1021
1
1.1021
1
1.03766
1.08576
1.13255
1.17421
1.20955
1.23861
1.26203
1.28064
1.29531
1.30682
1.31583
1.32289
1.32843
1.33279
1.33622
1.33893
1.34107
1.34276
1.34409
1.34513
1.34594
1.34656
1.34704
1.34739
1.34764
1.34782
1.34794
1.34801
1.34805
1.34806
1.34804
1.34801
1.34796
1.3479
1.34783
1.34776
1.34768
1.3476
1.34753
1.34746
1.3474
1.34735
1.3473
1.34727
1.34724
1.34721
1.34719
1.34718
1.34717
1.34717
1.34716
1.34716
1.34716
1.34716
1.34716
1.34716
1.34716
1.34716
1.34716
1.34716
1.34716
1.34717
1.34717
1.34717
1.34717
1.34717
1.34717
1.34717
1.34717
1.34717
1.34717
1.34717
1.34717
1.34717
1.34717
1.34717
1.34717
1.34717
1.34717
1.34717
1.34717
1.34717
1.34717
1.34717
1.34717
1.34717
1.34717
1.34717
1.34717
1.34717
1.34717
1.34716
1.34715
1.34709
1.34699
1.34605
1.34504
1.32919
1.32611
1
1.32611
1
1.03576
1.08266
1.1305
1.17621
1.21854
1.25697
1.29129
1.32149
1.34769
1.37013
1.38912
1.405
1.41816
1.42896
1.43773
1.44479
1.45042
1.45486
1.45832
1.46099
1.463
1.4645
1.46558
1.46633
1.46683
1.46713
1.46727
1.46731
1.46726
1.46715
1.467
1.46682
1.46662
1.4664
1.46618
1.46595
1.46572
1.46549
1.46527
1.46507
1.46487
1.4647
1.46455
1.46441
1.4643
1.46421
1.46414
1.46408
1.46404
1.46402
1.464
1.46399
1.46398
1.46398
1.46398
1.46398
1.46398
1.46399
1.46399
1.46399
1.46399
1.464
1.464
1.464
1.464
1.464
1.464
1.464
1.464
1.464
1.464
1.464
1.464
1.464
1.464
1.464
1.464
1.464
1.464
1.464
1.464
1.464
1.464
1.464
1.464
1.464
1.464
1.464
1.464
1.464
1.464
1.46399
1.46399
1.46388
1.4639
1.46222
1.46242
1.43786
1.4442
1
1.4442
1
1.03576
1.08266
1.1305
1.17621
1.21854
1.25697
1.29129
1.32149
1.34769
1.37013
1.38912
1.405
1.41816
1.42896
1.43773
1.44479
1.45042
1.45486
1.45832
1.46099
1.463
1.4645
1.46558
1.46633
1.46683
1.46713
1.46727
1.46731
1.46726
1.46715
1.467
1.46682
1.46662
1.4664
1.46618
1.46595
1.46572
1.46549
1.46527
1.46507
1.46487
1.4647
1.46455
1.46441
1.4643
1.46421
1.46414
1.46408
1.46404
1.46402
1.464
1.46399
1.46398
1.46398
1.46398
1.46398
1.46398
1.46399
1.46399
1.46399
1.46399
1.464
1.464
1.464
1.464
1.464
1.464
1.464
1.464
1.464
1.464
1.464
1.464
1.464
1.464
1.464
1.464
1.464
1.464
1.464
1.464
1.464
1.464
1.464
1.464
1.464
1.464
1.464
1.464
1.464
1.464
1.46399
1.46399
1.46387
1.4639
1.46222
1.46242
1.43786
1.4442
1
1.44419
1
1.03766
1.08576
1.13255
1.17421
1.20955
1.23861
1.26203
1.28064
1.29531
1.30682
1.31583
1.32289
1.32843
1.33279
1.33622
1.33893
1.34107
1.34276
1.34409
1.34513
1.34594
1.34656
1.34704
1.34739
1.34764
1.34782
1.34794
1.34802
1.34805
1.34806
1.34804
1.34801
1.34796
1.3479
1.34783
1.34776
1.34768
1.34761
1.34753
1.34746
1.3474
1.34735
1.3473
1.34727
1.34724
1.34721
1.34719
1.34718
1.34717
1.34717
1.34716
1.34716
1.34716
1.34716
1.34716
1.34716
1.34716
1.34716
1.34716
1.34716
1.34717
1.34717
1.34717
1.34717
1.34717
1.34717
1.34717
1.34717
1.34717
1.34717
1.34717
1.34717
1.34717
1.34717
1.34717
1.34717
1.34717
1.34717
1.34717
1.34717
1.34717
1.34717
1.34717
1.34717
1.34717
1.34717
1.34717
1.34717
1.34717
1.34717
1.34716
1.34716
1.34715
1.34709
1.34699
1.34605
1.34504
1.32919
1.32611
1
1.32611
1
1.04017
1.08473
1.11989
1.14301
1.15539
1.15973
1.15877
1.15476
1.1493
1.14345
1.13781
1.13272
1.12832
1.12461
1.12157
1.11911
1.11717
1.11565
1.11449
1.11361
1.11297
1.11251
1.1122
1.112
1.11188
1.11183
1.11182
1.11185
1.11191
1.11197
1.11205
1.11214
1.11222
1.11231
1.1124
1.11249
1.11257
1.11266
1.11274
1.11282
1.1129
1.11297
1.11303
1.11309
1.11313
1.11317
1.1132
1.11322
1.11324
1.11325
1.11326
1.11326
1.11326
1.11326
1.11326
1.11326
1.11326
1.11326
1.11326
1.11326
1.11326
1.11325
1.11325
1.11325
1.11325
1.11325
1.11325
1.11325
1.11325
1.11325
1.11325
1.11325
1.11325
1.11325
1.11325
1.11325
1.11325
1.11325
1.11325
1.11325
1.11325
1.11325
1.11325
1.11325
1.11325
1.11325
1.11325
1.11325
1.11325
1.11325
1.11325
1.11325
1.11324
1.11324
1.11313
1.11309
1.1116
1.1095
1.1021
1
1.1021
1
1.02373
1.02809
1.01223
0.983935
0.950688
0.917729
0.887957
0.86251
0.841467
0.824393
0.810677
0.799715
0.790973
0.784013
0.778481
0.774096
0.770634
0.767916
0.765798
0.764162
0.762916
0.761981
0.761294
0.760805
0.76047
0.760257
0.760137
0.760088
0.760092
0.760137
0.760212
0.760307
0.760421
0.760549
0.760685
0.760827
0.760969
0.761109
0.761242
0.761367
0.761481
0.761582
0.761669
0.761743
0.761803
0.761851
0.761888
0.761915
0.761934
0.761947
0.761955
0.76196
0.761962
0.761962
0.761961
0.76196
0.761958
0.761957
0.761956
0.761954
0.761953
0.761953
0.761952
0.761951
0.761951
0.76195
0.76195
0.76195
0.76195
0.76195
0.76195
0.76195
0.761949
0.761949
0.761949
0.761949
0.761949
0.761949
0.761949
0.761949
0.761949
0.761949
0.761949
0.761949
0.761949
0.761949
0.761949
0.761949
0.761949
0.761949
0.761949
0.761953
0.761959
0.762015
0.76209
0.762961
0.763769
0.777485
0.791804
1
0.791806
1
0.80718
0.659027
0.550101
0.474363
0.423321
0.389001
0.365438
0.348706
0.336385
0.327021
0.319735
0.313975
0.309379
0.305692
0.302731
0.300355
0.298453
0.296939
0.295741
0.294801
0.294071
0.293512
0.293091
0.292781
0.292559
0.292407
0.292311
0.292257
0.292236
0.29224
0.292264
0.292306
0.292362
0.292426
0.292495
0.292566
0.292637
0.292707
0.292772
0.292833
0.292888
0.292937
0.292979
0.293015
0.293043
0.293067
0.293084
0.293098
0.293107
0.293114
0.293118
0.29312
0.293122
0.293122
0.293122
0.293121
0.293121
0.29312
0.29312
0.293119
0.293118
0.293118
0.293118
0.293117
0.293117
0.293117
0.293117
0.293117
0.293117
0.293117
0.293117
0.293117
0.293116
0.293116
0.293116
0.293116
0.293116
0.293116
0.293116
0.293116
0.293116
0.293116
0.293116
0.293116
0.293116
0.293116
0.293116
0.293116
0.293116
0.293117
0.293118
0.293128
0.293149
0.293283
0.293603
0.29548
0.300251
0.327456
0.370974
1
0.370974
-1
-0.80718
-0.659027
-0.550101
-0.474363
-0.423321
-0.389001
-0.365438
-0.348706
-0.336385
-0.327021
-0.319735
-0.313975
-0.309379
-0.305692
-0.302731
-0.300355
-0.298453
-0.296939
-0.295741
-0.294801
-0.294071
-0.293512
-0.293091
-0.292781
-0.292559
-0.292407
-0.292311
-0.292257
-0.292236
-0.29224
-0.292264
-0.292307
-0.292362
-0.292427
-0.292496
-0.292567
-0.292638
-0.292708
-0.292774
-0.292835
-0.29289
-0.292939
-0.292981
-0.293016
-0.293045
-0.293068
-0.293086
-0.293099
-0.293108
-0.293115
-0.293119
-0.293121
-0.293123
-0.293123
-0.293123
-0.293122
-0.293122
-0.293121
-0.293121
-0.29312
-0.293119
-0.293119
-0.293119
-0.293118
-0.293118
-0.293118
-0.293118
-0.293118
-0.293118
-0.293118
-0.293118
-0.293118
-0.293117
-0.293117
-0.293117
-0.293117
-0.293117
-0.293117
-0.293117
-0.293117
-0.293117
-0.293117
-0.293117
-0.293117
-0.293117
-0.293117
-0.293117
-0.293117
-0.293117
-0.293118
-0.293119
-0.293129
-0.29315
-0.293284
-0.293604
-0.295481
-0.300252
-0.327456
-0.370974
-1
-0.370974
