# vtk DataFile Version 2.0
FlowField
ASCII
DATASET STRUCTURED_GRID
DIMENSIONS 102 13 1 
POINTS 1326 double
0 0 0
0.3 0 0
0.6 0 0
0.9 0 0
1.2 0 0
1.5 0 0
1.8 0 0
2.1 0 0
2.4 0 0
2.7 0 0
3 0 0
3.3 0 0
3.6 0 0
3.9 0 0
4.2 0 0
4.5 0 0
4.8 0 0
5.1 0 0
5.4 0 0
5.7 0 0
6 0 0
6.3 0 0
6.6 0 0
6.9 0 0
7.2 0 0
7.5 0 0
7.8 0 0
8.1 0 0
8.4 0 0
8.7 0 0
9 0 0
9.3 0 0
9.6 0 0
9.9 0 0
10.2 0 0
10.5 0 0
10.8 0 0
11.1 0 0
11.4 0 0
11.7 0 0
12 0 0
12.3 0 0
12.6 0 0
12.9 0 0
13.2 0 0
13.5 0 0
13.8 0 0
14.1 0 0
14.4 0 0
14.7 0 0
15 0 0
15.3 0 0
15.6 0 0
15.9 0 0
16.2 0 0
16.5 0 0
16.8 0 0
17.1 0 0
17.4 0 0
17.7 0 0
18 0 0
18.3 0 0
18.6 0 0
18.9 0 0
19.2 0 0
19.5 0 0
19.8 0 0
20.1 0 0
20.4 0 0
20.7 0 0
21 0 0
21.3 0 0
21.6 0 0
21.9 0 0
22.2 0 0
22.5 0 0
22.8 0 0
23.1 0 0
23.4 0 0
23.7 0 0
24 0 0
24.3 0 0
24.6 0 0
24.9 0 0
25.2 0 0
25.5 0 0
25.8 0 0
26.1 0 0
26.4 0 0
26.7 0 0
27 0 0
27.3 0 0
27.6 0 0
27.9 0 0
28.2 0 0
28.5 0 0
28.8 0 0
29.1 0 0
29.4 0 0
29.7 0 0
30 0 0
30.3 0 0
0 0.1 0
0.3 0.1 0
0.6 0.1 0
0.9 0.1 0
1.2 0.1 0
1.5 0.1 0
1.8 0.1 0
2.1 0.1 0
2.4 0.1 0
2.7 0.1 0
3 0.1 0
3.3 0.1 0
3.6 0.1 0
3.9 0.1 0
4.2 0.1 0
4.5 0.1 0
4.8 0.1 0
5.1 0.1 0
5.4 0.1 0
5.7 0.1 0
6 0.1 0
6.3 0.1 0
6.6 0.1 0
6.9 0.1 0
7.2 0.1 0
7.5 0.1 0
7.8 0.1 0
8.1 0.1 0
8.4 0.1 0
8.7 0.1 0
9 0.1 0
9.3 0.1 0
9.6 0.1 0
9.9 0.1 0
10.2 0.1 0
10.5 0.1 0
10.8 0.1 0
11.1 0.1 0
11.4 0.1 0
11.7 0.1 0
12 0.1 0
12.3 0.1 0
12.6 0.1 0
12.9 0.1 0
13.2 0.1 0
13.5 0.1 0
13.8 0.1 0
14.1 0.1 0
14.4 0.1 0
14.7 0.1 0
15 0.1 0
15.3 0.1 0
15.6 0.1 0
15.9 0.1 0
16.2 0.1 0
16.5 0.1 0
16.8 0.1 0
17.1 0.1 0
17.4 0.1 0
17.7 0.1 0
18 0.1 0
18.3 0.1 0
18.6 0.1 0
18.9 0.1 0
19.2 0.1 0
19.5 0.1 0
19.8 0.1 0
20.1 0.1 0
20.4 0.1 0
20.7 0.1 0
21 0.1 0
21.3 0.1 0
21.6 0.1 0
21.9 0.1 0
22.2 0.1 0
22.5 0.1 0
22.8 0.1 0
23.1 0.1 0
23.4 0.1 0
23.7 0.1 0
24 0.1 0
24.3 0.1 0
24.6 0.1 0
24.9 0.1 0
25.2 0.1 0
25.5 0.1 0
25.8 0.1 0
26.1 0.1 0
26.4 0.1 0
26.7 0.1 0
27 0.1 0
27.3 0.1 0
27.6 0.1 0
27.9 0.1 0
28.2 0.1 0
28.5 0.1 0
28.8 0.1 0
29.1 0.1 0
29.4 0.1 0
29.7 0.1 0
30 0.1 0
30.3 0.1 0
0 0.2 0
0.3 0.2 0
0.6 0.2 0
0.9 0.2 0
1.2 0.2 0
1.5 0.2 0
1.8 0.2 0
2.1 0.2 0
2.4 0.2 0
2.7 0.2 0
3 0.2 0
3.3 0.2 0
3.6 0.2 0
3.9 0.2 0
4.2 0.2 0
4.5 0.2 0
4.8 0.2 0
5.1 0.2 0
5.4 0.2 0
5.7 0.2 0
6 0.2 0
6.3 0.2 0
6.6 0.2 0
6.9 0.2 0
7.2 0.2 0
7.5 0.2 0
7.8 0.2 0
8.1 0.2 0
8.4 0.2 0
8.7 0.2 0
9 0.2 0
9.3 0.2 0
9.6 0.2 0
9.9 0.2 0
10.2 0.2 0
10.5 0.2 0
10.8 0.2 0
11.1 0.2 0
11.4 0.2 0
11.7 0.2 0
12 0.2 0
12.3 0.2 0
12.6 0.2 0
12.9 0.2 0
13.2 0.2 0
13.5 0.2 0
13.8 0.2 0
14.1 0.2 0
14.4 0.2 0
14.7 0.2 0
15 0.2 0
15.3 0.2 0
15.6 0.2 0
15.9 0.2 0
16.2 0.2 0
16.5 0.2 0
16.8 0.2 0
17.1 0.2 0
17.4 0.2 0
17.7 0.2 0
18 0.2 0
18.3 0.2 0
18.6 0.2 0
18.9 0.2 0
19.2 0.2 0
19.5 0.2 0
19.8 0.2 0
20.1 0.2 0
20.4 0.2 0
20.7 0.2 0
21 0.2 0
21.3 0.2 0
21.6 0.2 0
21.9 0.2 0
22.2 0.2 0
22.5 0.2 0
22.8 0.2 0
23.1 0.2 0
23.4 0.2 0
23.7 0.2 0
24 0.2 0
24.3 0.2 0
24.6 0.2 0
24.9 0.2 0
25.2 0.2 0
25.5 0.2 0
25.8 0.2 0
26.1 0.2 0
26.4 0.2 0
26.7 0.2 0
27 0.2 0
27.3 0.2 0
27.6 0.2 0
27.9 0.2 0
28.2 0.2 0
28.5 0.2 0
28.8 0.2 0
29.1 0.2 0
29.4 0.2 0
29.7 0.2 0
30 0.2 0
30.3 0.2 0
0 0.3 0
0.3 0.3 0
0.6 0.3 0
0.9 0.3 0
1.2 0.3 0
1.5 0.3 0
1.8 0.3 0
2.1 0.3 0
2.4 0.3 0
2.7 0.3 0
3 0.3 0
3.3 0.3 0
3.6 0.3 0
3.9 0.3 0
4.2 0.3 0
4.5 0.3 0
4.8 0.3 0
5.1 0.3 0
5.4 0.3 0
5.7 0.3 0
6 0.3 0
6.3 0.3 0
6.6 0.3 0
6.9 0.3 0
7.2 0.3 0
7.5 0.3 0
7.8 0.3 0
8.1 0.3 0
8.4 0.3 0
8.7 0.3 0
9 0.3 0
9.3 0.3 0
9.6 0.3 0
9.9 0.3 0
10.2 0.3 0
10.5 0.3 0
10.8 0.3 0
11.1 0.3 0
11.4 0.3 0
11.7 0.3 0
12 0.3 0
12.3 0.3 0
12.6 0.3 0
12.9 0.3 0
13.2 0.3 0
13.5 0.3 0
13.8 0.3 0
14.1 0.3 0
14.4 0.3 0
14.7 0.3 0
15 0.3 0
15.3 0.3 0
15.6 0.3 0
15.9 0.3 0
16.2 0.3 0
16.5 0.3 0
16.8 0.3 0
17.1 0.3 0
17.4 0.3 0
17.7 0.3 0
18 0.3 0
18.3 0.3 0
18.6 0.3 0
18.9 0.3 0
19.2 0.3 0
19.5 0.3 0
19.8 0.3 0
20.1 0.3 0
20.4 0.3 0
20.7 0.3 0
21 0.3 0
21.3 0.3 0
21.6 0.3 0
21.9 0.3 0
22.2 0.3 0
22.5 0.3 0
22.8 0.3 0
23.1 0.3 0
23.4 0.3 0
23.7 0.3 0
24 0.3 0
24.3 0.3 0
24.6 0.3 0
24.9 0.3 0
25.2 0.3 0
25.5 0.3 0
25.8 0.3 0
26.1 0.3 0
26.4 0.3 0
26.7 0.3 0
27 0.3 0
27.3 0.3 0
27.6 0.3 0
27.9 0.3 0
28.2 0.3 0
28.5 0.3 0
28.8 0.3 0
29.1 0.3 0
29.4 0.3 0
29.7 0.3 0
30 0.3 0
30.3 0.3 0
0 0.4 0
0.3 0.4 0
0.6 0.4 0
0.9 0.4 0
1.2 0.4 0
1.5 0.4 0
1.8 0.4 0
2.1 0.4 0
2.4 0.4 0
2.7 0.4 0
3 0.4 0
3.3 0.4 0
3.6 0.4 0
3.9 0.4 0
4.2 0.4 0
4.5 0.4 0
4.8 0.4 0
5.1 0.4 0
5.4 0.4 0
5.7 0.4 0
6 0.4 0
6.3 0.4 0
6.6 0.4 0
6.9 0.4 0
7.2 0.4 0
7.5 0.4 0
7.8 0.4 0
8.1 0.4 0
8.4 0.4 0
8.7 0.4 0
9 0.4 0
9.3 0.4 0
9.6 0.4 0
9.9 0.4 0
10.2 0.4 0
10.5 0.4 0
10.8 0.4 0
11.1 0.4 0
11.4 0.4 0
11.7 0.4 0
12 0.4 0
12.3 0.4 0
12.6 0.4 0
12.9 0.4 0
13.2 0.4 0
13.5 0.4 0
13.8 0.4 0
14.1 0.4 0
14.4 0.4 0
14.7 0.4 0
15 0.4 0
15.3 0.4 0
15.6 0.4 0
15.9 0.4 0
16.2 0.4 0
16.5 0.4 0
16.8 0.4 0
17.1 0.4 0
17.4 0.4 0
17.7 0.4 0
18 0.4 0
18.3 0.4 0
18.6 0.4 0
18.9 0.4 0
19.2 0.4 0
19.5 0.4 0
19.8 0.4 0
20.1 0.4 0
20.4 0.4 0
20.7 0.4 0
21 0.4 0
21.3 0.4 0
21.6 0.4 0
21.9 0.4 0
22.2 0.4 0
22.5 0.4 0
22.8 0.4 0
23.1 0.4 0
23.4 0.4 0
23.7 0.4 0
24 0.4 0
24.3 0.4 0
24.6 0.4 0
24.9 0.4 0
25.2 0.4 0
25.5 0.4 0
25.8 0.4 0
26.1 0.4 0
26.4 0.4 0
26.7 0.4 0
27 0.4 0
27.3 0.4 0
27.6 0.4 0
27.9 0.4 0
28.2 0.4 0
28.5 0.4 0
28.8 0.4 0
29.1 0.4 0
29.4 0.4 0
29.7 0.4 0
30 0.4 0
30.3 0.4 0
0 0.5 0
0.3 0.5 0
0.6 0.5 0
0.9 0.5 0
1.2 0.5 0
1.5 0.5 0
1.8 0.5 0
2.1 0.5 0
2.4 0.5 0
2.7 0.5 0
3 0.5 0
3.3 0.5 0
3.6 0.5 0
3.9 0.5 0
4.2 0.5 0
4.5 0.5 0
4.8 0.5 0
5.1 0.5 0
5.4 0.5 0
5.7 0.5 0
6 0.5 0
6.3 0.5 0
6.6 0.5 0
6.9 0.5 0
7.2 0.5 0
7.5 0.5 0
7.8 0.5 0
8.1 0.5 0
8.4 0.5 0
8.7 0.5 0
9 0.5 0
9.3 0.5 0
9.6 0.5 0
9.9 0.5 0
10.2 0.5 0
10.5 0.5 0
10.8 0.5 0
11.1 0.5 0
11.4 0.5 0
11.7 0.5 0
12 0.5 0
12.3 0.5 0
12.6 0.5 0
12.9 0.5 0
13.2 0.5 0
13.5 0.5 0
13.8 0.5 0
14.1 0.5 0
14.4 0.5 0
14.7 0.5 0
15 0.5 0
15.3 0.5 0
15.6 0.5 0
15.9 0.5 0
16.2 0.5 0
16.5 0.5 0
16.8 0.5 0
17.1 0.5 0
17.4 0.5 0
17.7 0.5 0
18 0.5 0
18.3 0.5 0
18.6 0.5 0
18.9 0.5 0
19.2 0.5 0
19.5 0.5 0
19.8 0.5 0
20.1 0.5 0
20.4 0.5 0
20.7 0.5 0
21 0.5 0
21.3 0.5 0
21.6 0.5 0
21.9 0.5 0
22.2 0.5 0
22.5 0.5 0
22.8 0.5 0
23.1 0.5 0
23.4 0.5 0
23.7 0.5 0
24 0.5 0
24.3 0.5 0
24.6 0.5 0
24.9 0.5 0
25.2 0.5 0
25.5 0.5 0
25.8 0.5 0
26.1 0.5 0
26.4 0.5 0
26.7 0.5 0
27 0.5 0
27.3 0.5 0
27.6 0.5 0
27.9 0.5 0
28.2 0.5 0
28.5 0.5 0
28.8 0.5 0
29.1 0.5 0
29.4 0.5 0
29.7 0.5 0
30 0.5 0
30.3 0.5 0
0 0.6 0
0.3 0.6 0
0.6 0.6 0
0.9 0.6 0
1.2 0.6 0
1.5 0.6 0
1.8 0.6 0
2.1 0.6 0
2.4 0.6 0
2.7 0.6 0
3 0.6 0
3.3 0.6 0
3.6 0.6 0
3.9 0.6 0
4.2 0.6 0
4.5 0.6 0
4.8 0.6 0
5.1 0.6 0
5.4 0.6 0
5.7 0.6 0
6 0.6 0
6.3 0.6 0
6.6 0.6 0
6.9 0.6 0
7.2 0.6 0
7.5 0.6 0
7.8 0.6 0
8.1 0.6 0
8.4 0.6 0
8.7 0.6 0
9 0.6 0
9.3 0.6 0
9.6 0.6 0
9.9 0.6 0
10.2 0.6 0
10.5 0.6 0
10.8 0.6 0
11.1 0.6 0
11.4 0.6 0
11.7 0.6 0
12 0.6 0
12.3 0.6 0
12.6 0.6 0
12.9 0.6 0
13.2 0.6 0
13.5 0.6 0
13.8 0.6 0
14.1 0.6 0
14.4 0.6 0
14.7 0.6 0
15 0.6 0
15.3 0.6 0
15.6 0.6 0
15.9 0.6 0
16.2 0.6 0
16.5 0.6 0
16.8 0.6 0
17.1 0.6 0
17.4 0.6 0
17.7 0.6 0
18 0.6 0
18.3 0.6 0
18.6 0.6 0
18.9 0.6 0
19.2 0.6 0
19.5 0.6 0
19.8 0.6 0
20.1 0.6 0
20.4 0.6 0
20.7 0.6 0
21 0.6 0
21.3 0.6 0
21.6 0.6 0
21.9 0.6 0
22.2 0.6 0
22.5 0.6 0
22.8 0.6 0
23.1 0.6 0
23.4 0.6 0
23.7 0.6 0
24 0.6 0
24.3 0.6 0
24.6 0.6 0
24.9 0.6 0
25.2 0.6 0
25.5 0.6 0
25.8 0.6 0
26.1 0.6 0
26.4 0.6 0
26.7 0.6 0
27 0.6 0
27.3 0.6 0
27.6 0.6 0
27.9 0.6 0
28.2 0.6 0
28.5 0.6 0
28.8 0.6 0
29.1 0.6 0
29.4 0.6 0
29.7 0.6 0
30 0.6 0
30.3 0.6 0
0 0.7 0
0.3 0.7 0
0.6 0.7 0
0.9 0.7 0
1.2 0.7 0
1.5 0.7 0
1.8 0.7 0
2.1 0.7 0
2.4 0.7 0
2.7 0.7 0
3 0.7 0
3.3 0.7 0
3.6 0.7 0
3.9 0.7 0
4.2 0.7 0
4.5 0.7 0
4.8 0.7 0
5.1 0.7 0
5.4 0.7 0
5.7 0.7 0
6 0.7 0
6.3 0.7 0
6.6 0.7 0
6.9 0.7 0
7.2 0.7 0
7.5 0.7 0
7.8 0.7 0
8.1 0.7 0
8.4 0.7 0
8.7 0.7 0
9 0.7 0
9.3 0.7 0
9.6 0.7 0
9.9 0.7 0
10.2 0.7 0
10.5 0.7 0
10.8 0.7 0
11.1 0.7 0
11.4 0.7 0
11.7 0.7 0
12 0.7 0
12.3 0.7 0
12.6 0.7 0
12.9 0.7 0
13.2 0.7 0
13.5 0.7 0
13.8 0.7 0
14.1 0.7 0
14.4 0.7 0
14.7 0.7 0
15 0.7 0
15.3 0.7 0
15.6 0.7 0
15.9 0.7 0
16.2 0.7 0
16.5 0.7 0
16.8 0.7 0
17.1 0.7 0
17.4 0.7 0
17.7 0.7 0
18 0.7 0
18.3 0.7 0
18.6 0.7 0
18.9 0.7 0
19.2 0.7 0
19.5 0.7 0
19.8 0.7 0
20.1 0.7 0
20.4 0.7 0
20.7 0.7 0
21 0.7 0
21.3 0.7 0
21.6 0.7 0
21.9 0.7 0
22.2 0.7 0
22.5 0.7 0
22.8 0.7 0
23.1 0.7 0
23.4 0.7 0
23.7 0.7 0
24 0.7 0
24.3 0.7 0
24.6 0.7 0
24.9 0.7 0
25.2 0.7 0
25.5 0.7 0
25.8 0.7 0
26.1 0.7 0
26.4 0.7 0
26.7 0.7 0
27 0.7 0
27.3 0.7 0
27.6 0.7 0
27.9 0.7 0
28.2 0.7 0
28.5 0.7 0
28.8 0.7 0
29.1 0.7 0
29.4 0.7 0
29.7 0.7 0
30 0.7 0
30.3 0.7 0
0 0.8 0
0.3 0.8 0
0.6 0.8 0
0.9 0.8 0
1.2 0.8 0
1.5 0.8 0
1.8 0.8 0
2.1 0.8 0
2.4 0.8 0
2.7 0.8 0
3 0.8 0
3.3 0.8 0
3.6 0.8 0
3.9 0.8 0
4.2 0.8 0
4.5 0.8 0
4.8 0.8 0
5.1 0.8 0
5.4 0.8 0
5.7 0.8 0
6 0.8 0
6.3 0.8 0
6.6 0.8 0
6.9 0.8 0
7.2 0.8 0
7.5 0.8 0
7.8 0.8 0
8.1 0.8 0
8.4 0.8 0
8.7 0.8 0
9 0.8 0
9.3 0.8 0
9.6 0.8 0
9.9 0.8 0
10.2 0.8 0
10.5 0.8 0
10.8 0.8 0
11.1 0.8 0
11.4 0.8 0
11.7 0.8 0
12 0.8 0
12.3 0.8 0
12.6 0.8 0
12.9 0.8 0
13.2 0.8 0
13.5 0.8 0
13.8 0.8 0
14.1 0.8 0
14.4 0.8 0
14.7 0.8 0
15 0.8 0
15.3 0.8 0
15.6 0.8 0
15.9 0.8 0
16.2 0.8 0
16.5 0.8 0
16.8 0.8 0
17.1 0.8 0
17.4 0.8 0
17.7 0.8 0
18 0.8 0
18.3 0.8 0
18.6 0.8 0
18.9 0.8 0
19.2 0.8 0
19.5 0.8 0
19.8 0.8 0
20.1 0.8 0
20.4 0.8 0
20.7 0.8 0
21 0.8 0
21.3 0.8 0
21.6 0.8 0
21.9 0.8 0
22.2 0.8 0
22.5 0.8 0
22.8 0.8 0
23.1 0.8 0
23.4 0.8 0
23.7 0.8 0
24 0.8 0
24.3 0.8 0
24.6 0.8 0
24.9 0.8 0
25.2 0.8 0
25.5 0.8 0
25.8 0.8 0
26.1 0.8 0
26.4 0.8 0
26.7 0.8 0
27 0.8 0
27.3 0.8 0
27.6 0.8 0
27.9 0.8 0
28.2 0.8 0
28.5 0.8 0
28.8 0.8 0
29.1 0.8 0
29.4 0.8 0
29.7 0.8 0
30 0.8 0
30.3 0.8 0
0 0.9 0
0.3 0.9 0
0.6 0.9 0
0.9 0.9 0
1.2 0.9 0
1.5 0.9 0
1.8 0.9 0
2.1 0.9 0
2.4 0.9 0
2.7 0.9 0
3 0.9 0
3.3 0.9 0
3.6 0.9 0
3.9 0.9 0
4.2 0.9 0
4.5 0.9 0
4.8 0.9 0
5.1 0.9 0
5.4 0.9 0
5.7 0.9 0
6 0.9 0
6.3 0.9 0
6.6 0.9 0
6.9 0.9 0
7.2 0.9 0
7.5 0.9 0
7.8 0.9 0
8.1 0.9 0
8.4 0.9 0
8.7 0.9 0
9 0.9 0
9.3 0.9 0
9.6 0.9 0
9.9 0.9 0
10.2 0.9 0
10.5 0.9 0
10.8 0.9 0
11.1 0.9 0
11.4 0.9 0
11.7 0.9 0
12 0.9 0
12.3 0.9 0
12.6 0.9 0
12.9 0.9 0
13.2 0.9 0
13.5 0.9 0
13.8 0.9 0
14.1 0.9 0
14.4 0.9 0
14.7 0.9 0
15 0.9 0
15.3 0.9 0
15.6 0.9 0
15.9 0.9 0
16.2 0.9 0
16.5 0.9 0
16.8 0.9 0
17.1 0.9 0
17.4 0.9 0
17.7 0.9 0
18 0.9 0
18.3 0.9 0
18.6 0.9 0
18.9 0.9 0
19.2 0.9 0
19.5 0.9 0
19.8 0.9 0
20.1 0.9 0
20.4 0.9 0
20.7 0.9 0
21 0.9 0
21.3 0.9 0
21.6 0.9 0
21.9 0.9 0
22.2 0.9 0
22.5 0.9 0
22.8 0.9 0
23.1 0.9 0
23.4 0.9 0
23.7 0.9 0
24 0.9 0
24.3 0.9 0
24.6 0.9 0
24.9 0.9 0
25.2 0.9 0
25.5 0.9 0
25.8 0.9 0
26.1 0.9 0
26.4 0.9 0
26.7 0.9 0
27 0.9 0
27.3 0.9 0
27.6 0.9 0
27.9 0.9 0
28.2 0.9 0
28.5 0.9 0
28.8 0.9 0
29.1 0.9 0
29.4 0.9 0
29.7 0.9 0
30 0.9 0
30.3 0.9 0
0 1 0
0.3 1 0
0.6 1 0
0.9 1 0
1.2 1 0
1.5 1 0
1.8 1 0
2.1 1 0
2.4 1 0
2.7 1 0
3 1 0
3.3 1 0
3.6 1 0
3.9 1 0
4.2 1 0
4.5 1 0
4.8 1 0
5.1 1 0
5.4 1 0
5.7 1 0
6 1 0
6.3 1 0
6.6 1 0
6.9 1 0
7.2 1 0
7.5 1 0
7.8 1 0
8.1 1 0
8.4 1 0
8.7 1 0
9 1 0
9.3 1 0
9.6 1 0
9.9 1 0
10.2 1 0
10.5 1 0
10.8 1 0
11.1 1 0
11.4 1 0
11.7 1 0
12 1 0
12.3 1 0
12.6 1 0
12.9 1 0
13.2 1 0
13.5 1 0
13.8 1 0
14.1 1 0
14.4 1 0
14.7 1 0
15 1 0
15.3 1 0
15.6 1 0
15.9 1 0
16.2 1 0
16.5 1 0
16.8 1 0
17.1 1 0
17.4 1 0
17.7 1 0
18 1 0
18.3 1 0
18.6 1 0
18.9 1 0
19.2 1 0
19.5 1 0
19.8 1 0
20.1 1 0
20.4 1 0
20.7 1 0
21 1 0
21.3 1 0
21.6 1 0
21.9 1 0
22.2 1 0
22.5 1 0
22.8 1 0
23.1 1 0
23.4 1 0
23.7 1 0
24 1 0
24.3 1 0
24.6 1 0
24.9 1 0
25.2 1 0
25.5 1 0
25.8 1 0
26.1 1 0
26.4 1 0
26.7 1 0
27 1 0
27.3 1 0
27.6 1 0
27.9 1 0
28.2 1 0
28.5 1 0
28.8 1 0
29.1 1 0
29.4 1 0
29.7 1 0
30 1 0
30.3 1 0
0 1.1 0
0.3 1.1 0
0.6 1.1 0
0.9 1.1 0
1.2 1.1 0
1.5 1.1 0
1.8 1.1 0
2.1 1.1 0
2.4 1.1 0
2.7 1.1 0
3 1.1 0
3.3 1.1 0
3.6 1.1 0
3.9 1.1 0
4.2 1.1 0
4.5 1.1 0
4.8 1.1 0
5.1 1.1 0
5.4 1.1 0
5.7 1.1 0
6 1.1 0
6.3 1.1 0
6.6 1.1 0
6.9 1.1 0
7.2 1.1 0
7.5 1.1 0
7.8 1.1 0
8.1 1.1 0
8.4 1.1 0
8.7 1.1 0
9 1.1 0
9.3 1.1 0
9.6 1.1 0
9.9 1.1 0
10.2 1.1 0
10.5 1.1 0
10.8 1.1 0
11.1 1.1 0
11.4 1.1 0
11.7 1.1 0
12 1.1 0
12.3 1.1 0
12.6 1.1 0
12.9 1.1 0
13.2 1.1 0
13.5 1.1 0
13.8 1.1 0
14.1 1.1 0
14.4 1.1 0
14.7 1.1 0
15 1.1 0
15.3 1.1 0
15.6 1.1 0
15.9 1.1 0
16.2 1.1 0
16.5 1.1 0
16.8 1.1 0
17.1 1.1 0
17.4 1.1 0
17.7 1.1 0
18 1.1 0
18.3 1.1 0
18.6 1.1 0
18.9 1.1 0
19.2 1.1 0
19.5 1.1 0
19.8 1.1 0
20.1 1.1 0
20.4 1.1 0
20.7 1.1 0
21 1.1 0
21.3 1.1 0
21.6 1.1 0
21.9 1.1 0
22.2 1.1 0
22.5 1.1 0
22.8 1.1 0
23.1 1.1 0
23.4 1.1 0
23.7 1.1 0
24 1.1 0
24.3 1.1 0
24.6 1.1 0
24.9 1.1 0
25.2 1.1 0
25.5 1.1 0
25.8 1.1 0
26.1 1.1 0
26.4 1.1 0
26.7 1.1 0
27 1.1 0
27.3 1.1 0
27.6 1.1 0
27.9 1.1 0
28.2 1.1 0
28.5 1.1 0
28.8 1.1 0
29.1 1.1 0
29.4 1.1 0
29.7 1.1 0
30 1.1 0
30.3 1.1 0
0 1.2 0
0.3 1.2 0
0.6 1.2 0
0.9 1.2 0
1.2 1.2 0
1.5 1.2 0
1.8 1.2 0
2.1 1.2 0
2.4 1.2 0
2.7 1.2 0
3 1.2 0
3.3 1.2 0
3.6 1.2 0
3.9 1.2 0
4.2 1.2 0
4.5 1.2 0
4.8 1.2 0
5.1 1.2 0
5.4 1.2 0
5.7 1.2 0
6 1.2 0
6.3 1.2 0
6.6 1.2 0
6.9 1.2 0
7.2 1.2 0
7.5 1.2 0
7.8 1.2 0
8.1 1.2 0
8.4 1.2 0
8.7 1.2 0
9 1.2 0
9.3 1.2 0
9.6 1.2 0
9.9 1.2 0
10.2 1.2 0
10.5 1.2 0
10.8 1.2 0
11.1 1.2 0
11.4 1.2 0
11.7 1.2 0
12 1.2 0
12.3 1.2 0
12.6 1.2 0
12.9 1.2 0
13.2 1.2 0
13.5 1.2 0
13.8 1.2 0
14.1 1.2 0
14.4 1.2 0
14.7 1.2 0
15 1.2 0
15.3 1.2 0
15.6 1.2 0
15.9 1.2 0
16.2 1.2 0
16.5 1.2 0
16.8 1.2 0
17.1 1.2 0
17.4 1.2 0
17.7 1.2 0
18 1.2 0
18.3 1.2 0
18.6 1.2 0
18.9 1.2 0
19.2 1.2 0
19.5 1.2 0
19.8 1.2 0
20.1 1.2 0
20.4 1.2 0
20.7 1.2 0
21 1.2 0
21.3 1.2 0
21.6 1.2 0
21.9 1.2 0
22.2 1.2 0
22.5 1.2 0
22.8 1.2 0
23.1 1.2 0
23.4 1.2 0
23.7 1.2 0
24 1.2 0
24.3 1.2 0
24.6 1.2 0
24.9 1.2 0
25.2 1.2 0
25.5 1.2 0
25.8 1.2 0
26.1 1.2 0
26.4 1.2 0
26.7 1.2 0
27 1.2 0
27.3 1.2 0
27.6 1.2 0
27.9 1.2 0
28.2 1.2 0
28.5 1.2 0
28.8 1.2 0
29.1 1.2 0
29.4 1.2 0
29.7 1.2 0
30 1.2 0
30.3 1.2 0

POINT_DATA 1326

SCALARS v double
LOOKUP_TABLE default
0
0
0
0
0
0
0
0
0
0
0
0
0
0
0
0
0
0
0
0
0
0
0
0
0
0
0
0
0
0
0
0
0
0
0
0
0
0
0
0
0
0
0
0
0
0
0
0
0
0
0
0
0
0
0
0
0
0
0
0
0
0
0
0
0
0
0
0
0
0
0
0
0
0
0
0
0
0
0
0
0
0
0
0
0
0
0
0
0
0
0
0
0
0
0
0
0
0
0
0
0
0
-0.0370799
0.0370799
0.0391133
0.0336313
0.0272524
0.0213215
0.0162805
0.0122495
0.00917273
0.00690398
0.00526865
0.00410327
0.00327339
0.00267716
0.00224159
0.00191618
0.00166664
0.00147001
0.00131107
0.00117959
0.00106862
0.00097347
0.000890804
0.000818154
0.000753757
0.00069633
0.000644822
0.000598342
0.000556229
0.000517969
0.00048306
0.000451097
0.00042179
0.000394842
0.000369972
0.000346986
0.000325713
0.000305985
0.000287647
0.000270576
0.000254666
0.000239819
0.00022595
0.000212974
0.000200819
0.000189426
0.000178741
0.00016871
0.000159285
0.000150422
0.000142084
0.000134237
0.000126848
0.000119887
0.000113325
0.000107136
0.000101299
9.57921e-05
9.05949e-05
8.56877e-05
8.10535e-05
7.66761e-05
7.25408e-05
6.86336e-05
6.49409e-05
6.14503e-05
5.81503e-05
5.50298e-05
5.20791e-05
4.92896e-05
4.66508e-05
4.41535e-05
4.17919e-05
3.95591e-05
3.74471e-05
3.54489e-05
3.35588e-05
3.17718e-05
3.00826e-05
2.84855e-05
2.69748e-05
2.55454e-05
2.41933e-05
2.29129e-05
2.16974e-05
2.05426e-05
1.94444e-05
1.8396e-05
1.73921e-05
1.64282e-05
1.54997e-05
1.46026e-05
1.37328e-05
1.28898e-05
1.20609e-05
1.12807e-05
1.04088e-05
9.84696e-06
8.10907e-06
8.34141e-06
-6.33818e-08
-6.33818e-08
-0.0282545
0.0282545
0.038741
0.0375699
0.0331777
0.0280244
0.0230972
0.0188234
0.0153293
0.0125738
0.0104408
0.00879742
0.00752361
0.00652312
0.00572373
0.00507311
0.00453395
0.00407989
0.00369219
0.00335721
0.00306496
0.00280794
0.00258032
0.00237751
0.00219592
0.00203264
0.00188521
0.00175155
0.00163002
0.00151917
0.00141776
0.00132474
0.00123923
0.00116043
0.00108763
0.00102028
0.000957856
0.00089989
0.000845976
0.000795762
0.000748937
0.000705219
0.000664355
0.000626116
0.000590299
0.000556725
0.00052523
0.000495661
0.00046788
0.000441763
0.000417197
0.000394079
0.000372312
0.000351809
0.000332487
0.000314271
0.000297093
0.00028089
0.0002656
0.000251168
0.000237543
0.000224677
0.000212525
0.000201046
0.000190199
0.000179949
0.000170261
0.000161103
0.000152446
0.000144261
0.00013652
0.000129199
0.000122277
0.000115732
0.000109542
0.000103687
9.81507e-05
9.2916e-05
8.79662e-05
8.32849e-05
7.88561e-05
7.46648e-05
7.06959e-05
6.69331e-05
6.33597e-05
5.99618e-05
5.67239e-05
5.36292e-05
5.06632e-05
4.78126e-05
4.50644e-05
4.24076e-05
3.98318e-05
3.73325e-05
3.48899e-05
3.25488e-05
3.01002e-05
2.81562e-05
2.40693e-05
2.41163e-05
-2.0443e-07
-2.0443e-07
-0.0177598
0.0177598
0.0281239
0.029097
0.0269195
0.0237001
0.0203368
0.0172614
0.0146483
0.0125199
0.0108216
0.00947165
0.00839006
0.00751
0.00678035
0.00616371
0.00563339
0.00517062
0.00476199
0.00439773
0.00407068
0.00377536
0.00350741
0.00326336
0.00304044
0.00283626
0.00264875
0.00247618
0.00231708
0.00217011
0.0020341
0.00190805
0.00179108
0.00168234
0.00158114
0.00148685
0.0013989
0.00131677
0.00123999
0.00116816
0.00110091
0.00103788
0.000978767
0.000923291
0.000871194
0.000822245
0.000776227
0.00073294
0.000692204
0.00065385
0.000617727
0.000583692
0.000551612
0.000521366
0.000492838
0.000465925
0.00044053
0.00041656
0.000393931
0.000372562
0.00035238
0.000333316
0.000315305
0.000298287
0.000282203
0.000267001
0.00025263
0.000239045
0.0002262
0.000214054
0.000202567
0.000191704
0.000181432
0.000171717
0.000162528
0.000153838
0.00014562
0.000137849
0.000130499
0.000123548
0.000116971
0.000110746
0.000104851
9.92611e-05
9.39548e-05
8.89101e-05
8.41037e-05
7.95125e-05
7.51158e-05
7.08936e-05
6.68269e-05
6.28994e-05
5.90961e-05
5.5408e-05
5.18131e-05
4.83514e-05
4.48038e-05
4.18251e-05
3.62863e-05
3.61816e-05
-2.93949e-07
-2.93949e-07
-0.00966195
0.00966195
0.0165163
0.017616
0.016649
0.0149526
0.0130935
0.0113491
0.00984094
0.00859618
0.00759148
0.0067838
0.00612851
0.0055876
0.00513167
0.0047392
0.00439498
0.0040885
0.00381232
0.00356118
0.0033313
0.00311982
0.0029245
0.0027436
0.00257573
0.00241963
0.00227424
0.00213866
0.00201211
0.00189385
0.00178322
0.00167968
0.00158268
0.00149174
0.00140642
0.00132636
0.00125117
0.00118051
0.00111408
0.00105161
0.00099283
0.000937504
0.000885406
0.000836331
0.000790092
0.000746512
0.000705427
0.000666682
0.000630133
0.000595651
0.000563112
0.000532401
0.000503407
0.000476031
0.000450177
0.000425758
0.000402692
0.000380899
0.000360307
0.000340846
0.000322454
0.000305069
0.000288636
0.000273099
0.000258409
0.000244519
0.000231383
0.000218961
0.000207213
0.000196101
0.00018559
0.000175648
0.000166244
0.000157348
0.000148934
0.000140974
0.000133446
0.000126326
0.000119591
0.00011322
0.000107192
0.000101486
9.60826e-05
9.09594e-05
8.6097e-05
8.14759e-05
7.70747e-05
7.28733e-05
6.88534e-05
6.49966e-05
6.12858e-05
5.77059e-05
5.42433e-05
5.08888e-05
4.76241e-05
4.44767e-05
4.12773e-05
3.85361e-05
3.36802e-05
3.35459e-05
-2.55546e-07
-2.55546e-07
-0.00306437
0.00306437
0.0054217
0.00585223
0.00557286
0.00504138
0.0044494
0.0038898
0.00340387
0.00300172
0.00267648
0.00241446
0.00220128
0.0020246
0.00187481
0.00174488
0.00162993
0.00152661
0.00143255
0.00134614
0.00126624
0.00119199
0.00112273
0.00105801
0.000997419
0.000940594
0.000887238
0.000837115
0.000790001
0.000745671
0.000703949
0.00066468
0.000627687
0.000592821
0.000559969
0.000529006
0.000499806
0.000472261
0.000446279
0.000421766
0.000398635
0.000376803
0.000356193
0.000336735
0.000318363
0.000301015
0.00028463
0.000269153
0.000254531
0.000240717
0.000227667
0.000215335
0.000203681
0.000192666
0.000182255
0.000172414
0.000163112
0.000154317
0.000146002
0.00013814
0.000130706
0.000123676
0.000117029
0.000110742
0.000104795
9.91707e-05
9.38508e-05
8.88188e-05
8.40588e-05
7.95554e-05
7.52949e-05
7.12649e-05
6.74528e-05
6.3846e-05
6.04336e-05
5.72059e-05
5.4153e-05
5.12652e-05
4.85334e-05
4.5949e-05
4.35036e-05
4.11889e-05
3.89964e-05
3.69177e-05
3.49453e-05
3.3071e-05
3.12857e-05
2.9582e-05
2.79525e-05
2.63895e-05
2.48865e-05
2.34371e-05
2.20359e-05
2.06791e-05
1.93596e-05
1.80864e-05
1.67981e-05
1.56795e-05
1.37572e-05
1.36448e-05
-1.02254e-07
-1.02254e-07
0.00306444
-0.00306444
-0.00542173
-0.00585222
-0.00557288
-0.00504142
-0.00444942
-0.00388984
-0.00340395
-0.00300176
-0.00267647
-0.00241449
-0.00220135
-0.00202464
-0.00187481
-0.0017449
-0.00162998
-0.00152664
-0.00143258
-0.00134618
-0.00126625
-0.001192
-0.00112277
-0.00105805
-0.000997429
-0.0009406
-0.000887257
-0.000837134
-0.000790009
-0.000745687
-0.000703969
-0.000664682
-0.00062769
-0.000592839
-0.000559984
-0.00052901
-0.00049981
-0.00047227
-0.000446289
-0.000421774
-0.000398641
-0.000376809
-0.0003562
-0.000336743
-0.00031837
-0.00030102
-0.000284635
-0.000269158
-0.000254538
-0.000240725
-0.000227673
-0.00021534
-0.000203686
-0.000192672
-0.000182262
-0.00017242
-0.000163117
-0.000154323
-0.000146008
-0.000138146
-0.000130712
-0.000123681
-0.000117033
-0.000110745
-0.000104799
-9.91737e-05
-9.38529e-05
-8.88197e-05
-8.40583e-05
-7.95541e-05
-7.52928e-05
-7.12608e-05
-6.74463e-05
-6.38378e-05
-6.04239e-05
-5.71941e-05
-5.41386e-05
-5.12484e-05
-4.85142e-05
-4.59275e-05
-4.34798e-05
-4.11629e-05
-3.89686e-05
-3.68888e-05
-3.49148e-05
-3.30389e-05
-3.12535e-05
-2.95502e-05
-2.79212e-05
-2.63593e-05
-2.48578e-05
-2.34105e-05
-2.20118e-05
-2.06577e-05
-1.93414e-05
-1.80719e-05
-1.67875e-05
-1.56728e-05
-1.37542e-05
-1.36456e-05
9.61585e-08
9.61585e-08
0.00966199
-0.00966199
-0.0165163
-0.017616
-0.016649
-0.0149526
-0.0130935
-0.0113491
-0.009841
-0.00859622
-0.00759149
-0.00678382
-0.00612857
-0.00558765
-0.00513169
-0.00473922
-0.00439502
-0.00408852
-0.00381235
-0.00356121
-0.00333131
-0.00311983
-0.00292452
-0.00274363
-0.00257575
-0.00241964
-0.00227425
-0.00213868
-0.00201212
-0.00189386
-0.00178324
-0.00167968
-0.00158269
-0.00149175
-0.00140644
-0.00132637
-0.00125117
-0.00118052
-0.00111409
-0.00105162
-0.000992838
-0.00093751
-0.000885412
-0.000836339
-0.0007901
-0.00074652
-0.000705433
-0.000666687
-0.000630141
-0.000595659
-0.000563119
-0.000532407
-0.000503414
-0.000476038
-0.000450184
-0.000425765
-0.000402698
-0.000380905
-0.000360313
-0.000340853
-0.00032246
-0.000305075
-0.000288641
-0.000273104
-0.000258414
-0.000244523
-0.000231387
-0.000218964
-0.000207215
-0.000196101
-0.00018559
-0.000175646
-0.00016624
-0.000157343
-0.000148927
-0.000140966
-0.000133436
-0.000126313
-0.000119576
-0.000113203
-0.000107173
-0.000101466
-9.60601e-05
-9.09358e-05
-8.60724e-05
-8.14501e-05
-7.70485e-05
-7.28475e-05
-6.88282e-05
-6.49723e-05
-6.12628e-05
-5.76847e-05
-5.42241e-05
-5.0872e-05
-4.761e-05
-4.44656e-05
-4.12695e-05
-3.85316e-05
-3.36788e-05
-3.35475e-05
2.48861e-07
2.48861e-07
0.0177598
-0.0177598
-0.0281239
-0.029097
-0.0269196
-0.0237001
-0.0203368
-0.0172614
-0.0146483
-0.01252
-0.0108216
-0.00947166
-0.00839008
-0.00751004
-0.00678039
-0.00616372
-0.00563341
-0.00517064
-0.00476201
-0.00439776
-0.00407071
-0.00377537
-0.00350741
-0.00326338
-0.00304047
-0.00283627
-0.00264875
-0.0024762
-0.00231709
-0.00217012
-0.00203411
-0.00190807
-0.00179109
-0.00168235
-0.00158115
-0.00148686
-0.00139891
-0.00131678
-0.00124
-0.00116817
-0.00110092
-0.00103789
-0.000978773
-0.000923298
-0.000871204
-0.000822254
-0.000776235
-0.000732948
-0.000692211
-0.000653859
-0.000617736
-0.000583701
-0.000551621
-0.000521374
-0.000492846
-0.000465934
-0.000440538
-0.000416568
-0.000393939
-0.00037257
-0.000352388
-0.000333324
-0.000315313
-0.000298294
-0.00028221
-0.000267007
-0.000252636
-0.00023905
-0.000226204
-0.000214057
-0.00020257
-0.000191707
-0.000181433
-0.000171716
-0.000162526
-0.000153835
-0.000145616
-0.000137843
-0.000130492
-0.000123538
-0.00011696
-0.000110734
-0.000104838
-9.92472e-05
-9.39407e-05
-8.88953e-05
-8.40883e-05
-7.94973e-05
-7.51013e-05
-7.08797e-05
-6.68141e-05
-6.28878e-05
-5.90858e-05
-5.53994e-05
-5.18062e-05
-4.83464e-05
-4.48008e-05
-4.18243e-05
-3.62879e-05
-3.61846e-05
2.87718e-07
2.87718e-07
0.0282545
-0.0282545
-0.038741
-0.03757
-0.0331777
-0.0280244
-0.0230972
-0.0188234
-0.0153293
-0.0125738
-0.0104408
-0.00879742
-0.0075236
-0.00652316
-0.00572379
-0.00507312
-0.00453394
-0.0040799
-0.0036922
-0.00335723
-0.003065
-0.00280795
-0.0025803
-0.00237752
-0.00219596
-0.00203266
-0.0018852
-0.00175156
-0.00163003
-0.00151918
-0.00141777
-0.00132476
-0.00123924
-0.00116043
-0.00108764
-0.0010203
-0.000957869
-0.000899897
-0.000845983
-0.000795773
-0.00074895
-0.00070523
-0.000664363
-0.000626124
-0.00059031
-0.000556738
-0.000525241
-0.000495671
-0.000467889
-0.000441773
-0.000417208
-0.00039409
-0.000372323
-0.000351818
-0.000332496
-0.000314281
-0.000297104
-0.0002809
-0.00026561
-0.000251178
-0.000237553
-0.000224687
-0.000212535
-0.000201055
-0.000190208
-0.000179958
-0.00017027
-0.000161112
-0.000152454
-0.000144267
-0.000136527
-0.000129206
-0.000122284
-0.000115737
-0.000109545
-0.00010369
-9.81539e-05
-9.29184e-05
-8.79673e-05
-8.32851e-05
-7.88559e-05
-7.46642e-05
-7.06943e-05
-6.69307e-05
-6.33578e-05
-5.996e-05
-5.67213e-05
-5.36265e-05
-5.0661e-05
-4.78108e-05
-4.50632e-05
-4.24069e-05
-3.98317e-05
-3.73331e-05
-3.48912e-05
-3.25506e-05
-3.01028e-05
-2.81596e-05
-2.40737e-05
-2.41216e-05
1.98143e-07
1.98143e-07
0.0370799
-0.0370799
-0.0391133
-0.0336313
-0.0272525
-0.0213215
-0.0162806
-0.0122495
-0.00917274
-0.00690401
-0.0052687
-0.00410328
-0.00327336
-0.00267717
-0.00224164
-0.00191621
-0.00166663
-0.00147002
-0.00131108
-0.0011796
-0.00106866
-0.000973496
-0.000890787
-0.000818147
-0.000753789
-0.000696359
-0.000644823
-0.000598347
-0.000556249
-0.000517975
-0.000483064
-0.000451121
-0.000421808
-0.000394841
-0.000369979
-0.000347005
-0.00032573
-0.000305994
-0.000287654
-0.000270588
-0.000254681
-0.000239834
-0.00022596
-0.000212983
-0.00020083
-0.00018944
-0.000178754
-0.000168721
-0.000159295
-0.000150433
-0.000142097
-0.00013425
-0.00012686
-0.000119898
-0.000113336
-0.000107148
-0.000101312
-9.58043e-05
-9.06064e-05
-8.5699e-05
-8.10649e-05
-7.66878e-05
-7.25526e-05
-6.86451e-05
-6.4952e-05
-6.14613e-05
-5.81615e-05
-5.50413e-05
-5.20905e-05
-4.92999e-05
-4.66607e-05
-4.41644e-05
-4.18031e-05
-3.95693e-05
-3.74564e-05
-3.54582e-05
-3.35685e-05
-3.17814e-05
-3.00916e-05
-2.8494e-05
-2.69833e-05
-2.55542e-05
-2.42015e-05
-2.29204e-05
-2.17055e-05
-2.05513e-05
-1.94524e-05
-1.84037e-05
-1.73999e-05
-1.64361e-05
-1.55077e-05
-1.46106e-05
-1.37408e-05
-1.28977e-05
-1.20685e-05
-1.12879e-05
-1.04157e-05
-9.85357e-06
-8.11564e-06
-8.34792e-06
5.60653e-08
5.60653e-08
0
0
0
0
0
0
0
0
0
0
0
0
0
0
0
0
0
0
0
0
0
0
0
0
0
0
0
0
0
0
0
0
0
0
0
0
0
0
0
0
0
0
0
0
0
0
0
0
0
0
0
0
0
0
0
0
0
0
0
0
0
0
0
0
0
0
0
0
0
0
0
0
0
0
0
0
0
0
0
0
0
0
0
0
0
0
0
0
0
0
0
0
0
0
0
0
0
0
0
0
0
0
0
0
0
0
0
0
0
0
0
0
0
0
0
0
0
0
0
0
0
0
0
0
0
0
0
0
0
0
0
0
0
0
0
0
0
0
0
0
0
0
0
0
0
0
0
0
0
0
0
0
0
0
0
0
0
0
0
0
0
0
0
0
0
0
0
0
0
0
0
0
0
0
0
0
0
0
0
0
0
0
0
0
0
0
0
0
0
0
0
0
0
0
0
0
0
0
0
0
0
0
0
0
