# vtk DataFile Version 2.0
FlowField
ASCII
DATASET STRUCTURED_GRID
DIMENSIONS 102 13 1 
POINTS 1326 double
0 0 0
0.3 0 0
0.6 0 0
0.9 0 0
1.2 0 0
1.5 0 0
1.8 0 0
2.1 0 0
2.4 0 0
2.7 0 0
3 0 0
3.3 0 0
3.6 0 0
3.9 0 0
4.2 0 0
4.5 0 0
4.8 0 0
5.1 0 0
5.4 0 0
5.7 0 0
6 0 0
6.3 0 0
6.6 0 0
6.9 0 0
7.2 0 0
7.5 0 0
7.8 0 0
8.1 0 0
8.4 0 0
8.7 0 0
9 0 0
9.3 0 0
9.6 0 0
9.9 0 0
10.2 0 0
10.5 0 0
10.8 0 0
11.1 0 0
11.4 0 0
11.7 0 0
12 0 0
12.3 0 0
12.6 0 0
12.9 0 0
13.2 0 0
13.5 0 0
13.8 0 0
14.1 0 0
14.4 0 0
14.7 0 0
15 0 0
15.3 0 0
15.6 0 0
15.9 0 0
16.2 0 0
16.5 0 0
16.8 0 0
17.1 0 0
17.4 0 0
17.7 0 0
18 0 0
18.3 0 0
18.6 0 0
18.9 0 0
19.2 0 0
19.5 0 0
19.8 0 0
20.1 0 0
20.4 0 0
20.7 0 0
21 0 0
21.3 0 0
21.6 0 0
21.9 0 0
22.2 0 0
22.5 0 0
22.8 0 0
23.1 0 0
23.4 0 0
23.7 0 0
24 0 0
24.3 0 0
24.6 0 0
24.9 0 0
25.2 0 0
25.5 0 0
25.8 0 0
26.1 0 0
26.4 0 0
26.7 0 0
27 0 0
27.3 0 0
27.6 0 0
27.9 0 0
28.2 0 0
28.5 0 0
28.8 0 0
29.1 0 0
29.4 0 0
29.7 0 0
30 0 0
30.3 0 0
0 0.1 0
0.3 0.1 0
0.6 0.1 0
0.9 0.1 0
1.2 0.1 0
1.5 0.1 0
1.8 0.1 0
2.1 0.1 0
2.4 0.1 0
2.7 0.1 0
3 0.1 0
3.3 0.1 0
3.6 0.1 0
3.9 0.1 0
4.2 0.1 0
4.5 0.1 0
4.8 0.1 0
5.1 0.1 0
5.4 0.1 0
5.7 0.1 0
6 0.1 0
6.3 0.1 0
6.6 0.1 0
6.9 0.1 0
7.2 0.1 0
7.5 0.1 0
7.8 0.1 0
8.1 0.1 0
8.4 0.1 0
8.7 0.1 0
9 0.1 0
9.3 0.1 0
9.6 0.1 0
9.9 0.1 0
10.2 0.1 0
10.5 0.1 0
10.8 0.1 0
11.1 0.1 0
11.4 0.1 0
11.7 0.1 0
12 0.1 0
12.3 0.1 0
12.6 0.1 0
12.9 0.1 0
13.2 0.1 0
13.5 0.1 0
13.8 0.1 0
14.1 0.1 0
14.4 0.1 0
14.7 0.1 0
15 0.1 0
15.3 0.1 0
15.6 0.1 0
15.9 0.1 0
16.2 0.1 0
16.5 0.1 0
16.8 0.1 0
17.1 0.1 0
17.4 0.1 0
17.7 0.1 0
18 0.1 0
18.3 0.1 0
18.6 0.1 0
18.9 0.1 0
19.2 0.1 0
19.5 0.1 0
19.8 0.1 0
20.1 0.1 0
20.4 0.1 0
20.7 0.1 0
21 0.1 0
21.3 0.1 0
21.6 0.1 0
21.9 0.1 0
22.2 0.1 0
22.5 0.1 0
22.8 0.1 0
23.1 0.1 0
23.4 0.1 0
23.7 0.1 0
24 0.1 0
24.3 0.1 0
24.6 0.1 0
24.9 0.1 0
25.2 0.1 0
25.5 0.1 0
25.8 0.1 0
26.1 0.1 0
26.4 0.1 0
26.7 0.1 0
27 0.1 0
27.3 0.1 0
27.6 0.1 0
27.9 0.1 0
28.2 0.1 0
28.5 0.1 0
28.8 0.1 0
29.1 0.1 0
29.4 0.1 0
29.7 0.1 0
30 0.1 0
30.3 0.1 0
0 0.2 0
0.3 0.2 0
0.6 0.2 0
0.9 0.2 0
1.2 0.2 0
1.5 0.2 0
1.8 0.2 0
2.1 0.2 0
2.4 0.2 0
2.7 0.2 0
3 0.2 0
3.3 0.2 0
3.6 0.2 0
3.9 0.2 0
4.2 0.2 0
4.5 0.2 0
4.8 0.2 0
5.1 0.2 0
5.4 0.2 0
5.7 0.2 0
6 0.2 0
6.3 0.2 0
6.6 0.2 0
6.9 0.2 0
7.2 0.2 0
7.5 0.2 0
7.8 0.2 0
8.1 0.2 0
8.4 0.2 0
8.7 0.2 0
9 0.2 0
9.3 0.2 0
9.6 0.2 0
9.9 0.2 0
10.2 0.2 0
10.5 0.2 0
10.8 0.2 0
11.1 0.2 0
11.4 0.2 0
11.7 0.2 0
12 0.2 0
12.3 0.2 0
12.6 0.2 0
12.9 0.2 0
13.2 0.2 0
13.5 0.2 0
13.8 0.2 0
14.1 0.2 0
14.4 0.2 0
14.7 0.2 0
15 0.2 0
15.3 0.2 0
15.6 0.2 0
15.9 0.2 0
16.2 0.2 0
16.5 0.2 0
16.8 0.2 0
17.1 0.2 0
17.4 0.2 0
17.7 0.2 0
18 0.2 0
18.3 0.2 0
18.6 0.2 0
18.9 0.2 0
19.2 0.2 0
19.5 0.2 0
19.8 0.2 0
20.1 0.2 0
20.4 0.2 0
20.7 0.2 0
21 0.2 0
21.3 0.2 0
21.6 0.2 0
21.9 0.2 0
22.2 0.2 0
22.5 0.2 0
22.8 0.2 0
23.1 0.2 0
23.4 0.2 0
23.7 0.2 0
24 0.2 0
24.3 0.2 0
24.6 0.2 0
24.9 0.2 0
25.2 0.2 0
25.5 0.2 0
25.8 0.2 0
26.1 0.2 0
26.4 0.2 0
26.7 0.2 0
27 0.2 0
27.3 0.2 0
27.6 0.2 0
27.9 0.2 0
28.2 0.2 0
28.5 0.2 0
28.8 0.2 0
29.1 0.2 0
29.4 0.2 0
29.7 0.2 0
30 0.2 0
30.3 0.2 0
0 0.3 0
0.3 0.3 0
0.6 0.3 0
0.9 0.3 0
1.2 0.3 0
1.5 0.3 0
1.8 0.3 0
2.1 0.3 0
2.4 0.3 0
2.7 0.3 0
3 0.3 0
3.3 0.3 0
3.6 0.3 0
3.9 0.3 0
4.2 0.3 0
4.5 0.3 0
4.8 0.3 0
5.1 0.3 0
5.4 0.3 0
5.7 0.3 0
6 0.3 0
6.3 0.3 0
6.6 0.3 0
6.9 0.3 0
7.2 0.3 0
7.5 0.3 0
7.8 0.3 0
8.1 0.3 0
8.4 0.3 0
8.7 0.3 0
9 0.3 0
9.3 0.3 0
9.6 0.3 0
9.9 0.3 0
10.2 0.3 0
10.5 0.3 0
10.8 0.3 0
11.1 0.3 0
11.4 0.3 0
11.7 0.3 0
12 0.3 0
12.3 0.3 0
12.6 0.3 0
12.9 0.3 0
13.2 0.3 0
13.5 0.3 0
13.8 0.3 0
14.1 0.3 0
14.4 0.3 0
14.7 0.3 0
15 0.3 0
15.3 0.3 0
15.6 0.3 0
15.9 0.3 0
16.2 0.3 0
16.5 0.3 0
16.8 0.3 0
17.1 0.3 0
17.4 0.3 0
17.7 0.3 0
18 0.3 0
18.3 0.3 0
18.6 0.3 0
18.9 0.3 0
19.2 0.3 0
19.5 0.3 0
19.8 0.3 0
20.1 0.3 0
20.4 0.3 0
20.7 0.3 0
21 0.3 0
21.3 0.3 0
21.6 0.3 0
21.9 0.3 0
22.2 0.3 0
22.5 0.3 0
22.8 0.3 0
23.1 0.3 0
23.4 0.3 0
23.7 0.3 0
24 0.3 0
24.3 0.3 0
24.6 0.3 0
24.9 0.3 0
25.2 0.3 0
25.5 0.3 0
25.8 0.3 0
26.1 0.3 0
26.4 0.3 0
26.7 0.3 0
27 0.3 0
27.3 0.3 0
27.6 0.3 0
27.9 0.3 0
28.2 0.3 0
28.5 0.3 0
28.8 0.3 0
29.1 0.3 0
29.4 0.3 0
29.7 0.3 0
30 0.3 0
30.3 0.3 0
0 0.4 0
0.3 0.4 0
0.6 0.4 0
0.9 0.4 0
1.2 0.4 0
1.5 0.4 0
1.8 0.4 0
2.1 0.4 0
2.4 0.4 0
2.7 0.4 0
3 0.4 0
3.3 0.4 0
3.6 0.4 0
3.9 0.4 0
4.2 0.4 0
4.5 0.4 0
4.8 0.4 0
5.1 0.4 0
5.4 0.4 0
5.7 0.4 0
6 0.4 0
6.3 0.4 0
6.6 0.4 0
6.9 0.4 0
7.2 0.4 0
7.5 0.4 0
7.8 0.4 0
8.1 0.4 0
8.4 0.4 0
8.7 0.4 0
9 0.4 0
9.3 0.4 0
9.6 0.4 0
9.9 0.4 0
10.2 0.4 0
10.5 0.4 0
10.8 0.4 0
11.1 0.4 0
11.4 0.4 0
11.7 0.4 0
12 0.4 0
12.3 0.4 0
12.6 0.4 0
12.9 0.4 0
13.2 0.4 0
13.5 0.4 0
13.8 0.4 0
14.1 0.4 0
14.4 0.4 0
14.7 0.4 0
15 0.4 0
15.3 0.4 0
15.6 0.4 0
15.9 0.4 0
16.2 0.4 0
16.5 0.4 0
16.8 0.4 0
17.1 0.4 0
17.4 0.4 0
17.7 0.4 0
18 0.4 0
18.3 0.4 0
18.6 0.4 0
18.9 0.4 0
19.2 0.4 0
19.5 0.4 0
19.8 0.4 0
20.1 0.4 0
20.4 0.4 0
20.7 0.4 0
21 0.4 0
21.3 0.4 0
21.6 0.4 0
21.9 0.4 0
22.2 0.4 0
22.5 0.4 0
22.8 0.4 0
23.1 0.4 0
23.4 0.4 0
23.7 0.4 0
24 0.4 0
24.3 0.4 0
24.6 0.4 0
24.9 0.4 0
25.2 0.4 0
25.5 0.4 0
25.8 0.4 0
26.1 0.4 0
26.4 0.4 0
26.7 0.4 0
27 0.4 0
27.3 0.4 0
27.6 0.4 0
27.9 0.4 0
28.2 0.4 0
28.5 0.4 0
28.8 0.4 0
29.1 0.4 0
29.4 0.4 0
29.7 0.4 0
30 0.4 0
30.3 0.4 0
0 0.5 0
0.3 0.5 0
0.6 0.5 0
0.9 0.5 0
1.2 0.5 0
1.5 0.5 0
1.8 0.5 0
2.1 0.5 0
2.4 0.5 0
2.7 0.5 0
3 0.5 0
3.3 0.5 0
3.6 0.5 0
3.9 0.5 0
4.2 0.5 0
4.5 0.5 0
4.8 0.5 0
5.1 0.5 0
5.4 0.5 0
5.7 0.5 0
6 0.5 0
6.3 0.5 0
6.6 0.5 0
6.9 0.5 0
7.2 0.5 0
7.5 0.5 0
7.8 0.5 0
8.1 0.5 0
8.4 0.5 0
8.7 0.5 0
9 0.5 0
9.3 0.5 0
9.6 0.5 0
9.9 0.5 0
10.2 0.5 0
10.5 0.5 0
10.8 0.5 0
11.1 0.5 0
11.4 0.5 0
11.7 0.5 0
12 0.5 0
12.3 0.5 0
12.6 0.5 0
12.9 0.5 0
13.2 0.5 0
13.5 0.5 0
13.8 0.5 0
14.1 0.5 0
14.4 0.5 0
14.7 0.5 0
15 0.5 0
15.3 0.5 0
15.6 0.5 0
15.9 0.5 0
16.2 0.5 0
16.5 0.5 0
16.8 0.5 0
17.1 0.5 0
17.4 0.5 0
17.7 0.5 0
18 0.5 0
18.3 0.5 0
18.6 0.5 0
18.9 0.5 0
19.2 0.5 0
19.5 0.5 0
19.8 0.5 0
20.1 0.5 0
20.4 0.5 0
20.7 0.5 0
21 0.5 0
21.3 0.5 0
21.6 0.5 0
21.9 0.5 0
22.2 0.5 0
22.5 0.5 0
22.8 0.5 0
23.1 0.5 0
23.4 0.5 0
23.7 0.5 0
24 0.5 0
24.3 0.5 0
24.6 0.5 0
24.9 0.5 0
25.2 0.5 0
25.5 0.5 0
25.8 0.5 0
26.1 0.5 0
26.4 0.5 0
26.7 0.5 0
27 0.5 0
27.3 0.5 0
27.6 0.5 0
27.9 0.5 0
28.2 0.5 0
28.5 0.5 0
28.8 0.5 0
29.1 0.5 0
29.4 0.5 0
29.7 0.5 0
30 0.5 0
30.3 0.5 0
0 0.6 0
0.3 0.6 0
0.6 0.6 0
0.9 0.6 0
1.2 0.6 0
1.5 0.6 0
1.8 0.6 0
2.1 0.6 0
2.4 0.6 0
2.7 0.6 0
3 0.6 0
3.3 0.6 0
3.6 0.6 0
3.9 0.6 0
4.2 0.6 0
4.5 0.6 0
4.8 0.6 0
5.1 0.6 0
5.4 0.6 0
5.7 0.6 0
6 0.6 0
6.3 0.6 0
6.6 0.6 0
6.9 0.6 0
7.2 0.6 0
7.5 0.6 0
7.8 0.6 0
8.1 0.6 0
8.4 0.6 0
8.7 0.6 0
9 0.6 0
9.3 0.6 0
9.6 0.6 0
9.9 0.6 0
10.2 0.6 0
10.5 0.6 0
10.8 0.6 0
11.1 0.6 0
11.4 0.6 0
11.7 0.6 0
12 0.6 0
12.3 0.6 0
12.6 0.6 0
12.9 0.6 0
13.2 0.6 0
13.5 0.6 0
13.8 0.6 0
14.1 0.6 0
14.4 0.6 0
14.7 0.6 0
15 0.6 0
15.3 0.6 0
15.6 0.6 0
15.9 0.6 0
16.2 0.6 0
16.5 0.6 0
16.8 0.6 0
17.1 0.6 0
17.4 0.6 0
17.7 0.6 0
18 0.6 0
18.3 0.6 0
18.6 0.6 0
18.9 0.6 0
19.2 0.6 0
19.5 0.6 0
19.8 0.6 0
20.1 0.6 0
20.4 0.6 0
20.7 0.6 0
21 0.6 0
21.3 0.6 0
21.6 0.6 0
21.9 0.6 0
22.2 0.6 0
22.5 0.6 0
22.8 0.6 0
23.1 0.6 0
23.4 0.6 0
23.7 0.6 0
24 0.6 0
24.3 0.6 0
24.6 0.6 0
24.9 0.6 0
25.2 0.6 0
25.5 0.6 0
25.8 0.6 0
26.1 0.6 0
26.4 0.6 0
26.7 0.6 0
27 0.6 0
27.3 0.6 0
27.6 0.6 0
27.9 0.6 0
28.2 0.6 0
28.5 0.6 0
28.8 0.6 0
29.1 0.6 0
29.4 0.6 0
29.7 0.6 0
30 0.6 0
30.3 0.6 0
0 0.7 0
0.3 0.7 0
0.6 0.7 0
0.9 0.7 0
1.2 0.7 0
1.5 0.7 0
1.8 0.7 0
2.1 0.7 0
2.4 0.7 0
2.7 0.7 0
3 0.7 0
3.3 0.7 0
3.6 0.7 0
3.9 0.7 0
4.2 0.7 0
4.5 0.7 0
4.8 0.7 0
5.1 0.7 0
5.4 0.7 0
5.7 0.7 0
6 0.7 0
6.3 0.7 0
6.6 0.7 0
6.9 0.7 0
7.2 0.7 0
7.5 0.7 0
7.8 0.7 0
8.1 0.7 0
8.4 0.7 0
8.7 0.7 0
9 0.7 0
9.3 0.7 0
9.6 0.7 0
9.9 0.7 0
10.2 0.7 0
10.5 0.7 0
10.8 0.7 0
11.1 0.7 0
11.4 0.7 0
11.7 0.7 0
12 0.7 0
12.3 0.7 0
12.6 0.7 0
12.9 0.7 0
13.2 0.7 0
13.5 0.7 0
13.8 0.7 0
14.1 0.7 0
14.4 0.7 0
14.7 0.7 0
15 0.7 0
15.3 0.7 0
15.6 0.7 0
15.9 0.7 0
16.2 0.7 0
16.5 0.7 0
16.8 0.7 0
17.1 0.7 0
17.4 0.7 0
17.7 0.7 0
18 0.7 0
18.3 0.7 0
18.6 0.7 0
18.9 0.7 0
19.2 0.7 0
19.5 0.7 0
19.8 0.7 0
20.1 0.7 0
20.4 0.7 0
20.7 0.7 0
21 0.7 0
21.3 0.7 0
21.6 0.7 0
21.9 0.7 0
22.2 0.7 0
22.5 0.7 0
22.8 0.7 0
23.1 0.7 0
23.4 0.7 0
23.7 0.7 0
24 0.7 0
24.3 0.7 0
24.6 0.7 0
24.9 0.7 0
25.2 0.7 0
25.5 0.7 0
25.8 0.7 0
26.1 0.7 0
26.4 0.7 0
26.7 0.7 0
27 0.7 0
27.3 0.7 0
27.6 0.7 0
27.9 0.7 0
28.2 0.7 0
28.5 0.7 0
28.8 0.7 0
29.1 0.7 0
29.4 0.7 0
29.7 0.7 0
30 0.7 0
30.3 0.7 0
0 0.8 0
0.3 0.8 0
0.6 0.8 0
0.9 0.8 0
1.2 0.8 0
1.5 0.8 0
1.8 0.8 0
2.1 0.8 0
2.4 0.8 0
2.7 0.8 0
3 0.8 0
3.3 0.8 0
3.6 0.8 0
3.9 0.8 0
4.2 0.8 0
4.5 0.8 0
4.8 0.8 0
5.1 0.8 0
5.4 0.8 0
5.7 0.8 0
6 0.8 0
6.3 0.8 0
6.6 0.8 0
6.9 0.8 0
7.2 0.8 0
7.5 0.8 0
7.8 0.8 0
8.1 0.8 0
8.4 0.8 0
8.7 0.8 0
9 0.8 0
9.3 0.8 0
9.6 0.8 0
9.9 0.8 0
10.2 0.8 0
10.5 0.8 0
10.8 0.8 0
11.1 0.8 0
11.4 0.8 0
11.7 0.8 0
12 0.8 0
12.3 0.8 0
12.6 0.8 0
12.9 0.8 0
13.2 0.8 0
13.5 0.8 0
13.8 0.8 0
14.1 0.8 0
14.4 0.8 0
14.7 0.8 0
15 0.8 0
15.3 0.8 0
15.6 0.8 0
15.9 0.8 0
16.2 0.8 0
16.5 0.8 0
16.8 0.8 0
17.1 0.8 0
17.4 0.8 0
17.7 0.8 0
18 0.8 0
18.3 0.8 0
18.6 0.8 0
18.9 0.8 0
19.2 0.8 0
19.5 0.8 0
19.8 0.8 0
20.1 0.8 0
20.4 0.8 0
20.7 0.8 0
21 0.8 0
21.3 0.8 0
21.6 0.8 0
21.9 0.8 0
22.2 0.8 0
22.5 0.8 0
22.8 0.8 0
23.1 0.8 0
23.4 0.8 0
23.7 0.8 0
24 0.8 0
24.3 0.8 0
24.6 0.8 0
24.9 0.8 0
25.2 0.8 0
25.5 0.8 0
25.8 0.8 0
26.1 0.8 0
26.4 0.8 0
26.7 0.8 0
27 0.8 0
27.3 0.8 0
27.6 0.8 0
27.9 0.8 0
28.2 0.8 0
28.5 0.8 0
28.8 0.8 0
29.1 0.8 0
29.4 0.8 0
29.7 0.8 0
30 0.8 0
30.3 0.8 0
0 0.9 0
0.3 0.9 0
0.6 0.9 0
0.9 0.9 0
1.2 0.9 0
1.5 0.9 0
1.8 0.9 0
2.1 0.9 0
2.4 0.9 0
2.7 0.9 0
3 0.9 0
3.3 0.9 0
3.6 0.9 0
3.9 0.9 0
4.2 0.9 0
4.5 0.9 0
4.8 0.9 0
5.1 0.9 0
5.4 0.9 0
5.7 0.9 0
6 0.9 0
6.3 0.9 0
6.6 0.9 0
6.9 0.9 0
7.2 0.9 0
7.5 0.9 0
7.8 0.9 0
8.1 0.9 0
8.4 0.9 0
8.7 0.9 0
9 0.9 0
9.3 0.9 0
9.6 0.9 0
9.9 0.9 0
10.2 0.9 0
10.5 0.9 0
10.8 0.9 0
11.1 0.9 0
11.4 0.9 0
11.7 0.9 0
12 0.9 0
12.3 0.9 0
12.6 0.9 0
12.9 0.9 0
13.2 0.9 0
13.5 0.9 0
13.8 0.9 0
14.1 0.9 0
14.4 0.9 0
14.7 0.9 0
15 0.9 0
15.3 0.9 0
15.6 0.9 0
15.9 0.9 0
16.2 0.9 0
16.5 0.9 0
16.8 0.9 0
17.1 0.9 0
17.4 0.9 0
17.7 0.9 0
18 0.9 0
18.3 0.9 0
18.6 0.9 0
18.9 0.9 0
19.2 0.9 0
19.5 0.9 0
19.8 0.9 0
20.1 0.9 0
20.4 0.9 0
20.7 0.9 0
21 0.9 0
21.3 0.9 0
21.6 0.9 0
21.9 0.9 0
22.2 0.9 0
22.5 0.9 0
22.8 0.9 0
23.1 0.9 0
23.4 0.9 0
23.7 0.9 0
24 0.9 0
24.3 0.9 0
24.6 0.9 0
24.9 0.9 0
25.2 0.9 0
25.5 0.9 0
25.8 0.9 0
26.1 0.9 0
26.4 0.9 0
26.7 0.9 0
27 0.9 0
27.3 0.9 0
27.6 0.9 0
27.9 0.9 0
28.2 0.9 0
28.5 0.9 0
28.8 0.9 0
29.1 0.9 0
29.4 0.9 0
29.7 0.9 0
30 0.9 0
30.3 0.9 0
0 1 0
0.3 1 0
0.6 1 0
0.9 1 0
1.2 1 0
1.5 1 0
1.8 1 0
2.1 1 0
2.4 1 0
2.7 1 0
3 1 0
3.3 1 0
3.6 1 0
3.9 1 0
4.2 1 0
4.5 1 0
4.8 1 0
5.1 1 0
5.4 1 0
5.7 1 0
6 1 0
6.3 1 0
6.6 1 0
6.9 1 0
7.2 1 0
7.5 1 0
7.8 1 0
8.1 1 0
8.4 1 0
8.7 1 0
9 1 0
9.3 1 0
9.6 1 0
9.9 1 0
10.2 1 0
10.5 1 0
10.8 1 0
11.1 1 0
11.4 1 0
11.7 1 0
12 1 0
12.3 1 0
12.6 1 0
12.9 1 0
13.2 1 0
13.5 1 0
13.8 1 0
14.1 1 0
14.4 1 0
14.7 1 0
15 1 0
15.3 1 0
15.6 1 0
15.9 1 0
16.2 1 0
16.5 1 0
16.8 1 0
17.1 1 0
17.4 1 0
17.7 1 0
18 1 0
18.3 1 0
18.6 1 0
18.9 1 0
19.2 1 0
19.5 1 0
19.8 1 0
20.1 1 0
20.4 1 0
20.7 1 0
21 1 0
21.3 1 0
21.6 1 0
21.9 1 0
22.2 1 0
22.5 1 0
22.8 1 0
23.1 1 0
23.4 1 0
23.7 1 0
24 1 0
24.3 1 0
24.6 1 0
24.9 1 0
25.2 1 0
25.5 1 0
25.8 1 0
26.1 1 0
26.4 1 0
26.7 1 0
27 1 0
27.3 1 0
27.6 1 0
27.9 1 0
28.2 1 0
28.5 1 0
28.8 1 0
29.1 1 0
29.4 1 0
29.7 1 0
30 1 0
30.3 1 0
0 1.1 0
0.3 1.1 0
0.6 1.1 0
0.9 1.1 0
1.2 1.1 0
1.5 1.1 0
1.8 1.1 0
2.1 1.1 0
2.4 1.1 0
2.7 1.1 0
3 1.1 0
3.3 1.1 0
3.6 1.1 0
3.9 1.1 0
4.2 1.1 0
4.5 1.1 0
4.8 1.1 0
5.1 1.1 0
5.4 1.1 0
5.7 1.1 0
6 1.1 0
6.3 1.1 0
6.6 1.1 0
6.9 1.1 0
7.2 1.1 0
7.5 1.1 0
7.8 1.1 0
8.1 1.1 0
8.4 1.1 0
8.7 1.1 0
9 1.1 0
9.3 1.1 0
9.6 1.1 0
9.9 1.1 0
10.2 1.1 0
10.5 1.1 0
10.8 1.1 0
11.1 1.1 0
11.4 1.1 0
11.7 1.1 0
12 1.1 0
12.3 1.1 0
12.6 1.1 0
12.9 1.1 0
13.2 1.1 0
13.5 1.1 0
13.8 1.1 0
14.1 1.1 0
14.4 1.1 0
14.7 1.1 0
15 1.1 0
15.3 1.1 0
15.6 1.1 0
15.9 1.1 0
16.2 1.1 0
16.5 1.1 0
16.8 1.1 0
17.1 1.1 0
17.4 1.1 0
17.7 1.1 0
18 1.1 0
18.3 1.1 0
18.6 1.1 0
18.9 1.1 0
19.2 1.1 0
19.5 1.1 0
19.8 1.1 0
20.1 1.1 0
20.4 1.1 0
20.7 1.1 0
21 1.1 0
21.3 1.1 0
21.6 1.1 0
21.9 1.1 0
22.2 1.1 0
22.5 1.1 0
22.8 1.1 0
23.1 1.1 0
23.4 1.1 0
23.7 1.1 0
24 1.1 0
24.3 1.1 0
24.6 1.1 0
24.9 1.1 0
25.2 1.1 0
25.5 1.1 0
25.8 1.1 0
26.1 1.1 0
26.4 1.1 0
26.7 1.1 0
27 1.1 0
27.3 1.1 0
27.6 1.1 0
27.9 1.1 0
28.2 1.1 0
28.5 1.1 0
28.8 1.1 0
29.1 1.1 0
29.4 1.1 0
29.7 1.1 0
30 1.1 0
30.3 1.1 0
0 1.2 0
0.3 1.2 0
0.6 1.2 0
0.9 1.2 0
1.2 1.2 0
1.5 1.2 0
1.8 1.2 0
2.1 1.2 0
2.4 1.2 0
2.7 1.2 0
3 1.2 0
3.3 1.2 0
3.6 1.2 0
3.9 1.2 0
4.2 1.2 0
4.5 1.2 0
4.8 1.2 0
5.1 1.2 0
5.4 1.2 0
5.7 1.2 0
6 1.2 0
6.3 1.2 0
6.6 1.2 0
6.9 1.2 0
7.2 1.2 0
7.5 1.2 0
7.8 1.2 0
8.1 1.2 0
8.4 1.2 0
8.7 1.2 0
9 1.2 0
9.3 1.2 0
9.6 1.2 0
9.9 1.2 0
10.2 1.2 0
10.5 1.2 0
10.8 1.2 0
11.1 1.2 0
11.4 1.2 0
11.7 1.2 0
12 1.2 0
12.3 1.2 0
12.6 1.2 0
12.9 1.2 0
13.2 1.2 0
13.5 1.2 0
13.8 1.2 0
14.1 1.2 0
14.4 1.2 0
14.7 1.2 0
15 1.2 0
15.3 1.2 0
15.6 1.2 0
15.9 1.2 0
16.2 1.2 0
16.5 1.2 0
16.8 1.2 0
17.1 1.2 0
17.4 1.2 0
17.7 1.2 0
18 1.2 0
18.3 1.2 0
18.6 1.2 0
18.9 1.2 0
19.2 1.2 0
19.5 1.2 0
19.8 1.2 0
20.1 1.2 0
20.4 1.2 0
20.7 1.2 0
21 1.2 0
21.3 1.2 0
21.6 1.2 0
21.9 1.2 0
22.2 1.2 0
22.5 1.2 0
22.8 1.2 0
23.1 1.2 0
23.4 1.2 0
23.7 1.2 0
24 1.2 0
24.3 1.2 0
24.6 1.2 0
24.9 1.2 0
25.2 1.2 0
25.5 1.2 0
25.8 1.2 0
26.1 1.2 0
26.4 1.2 0
26.7 1.2 0
27 1.2 0
27.3 1.2 0
27.6 1.2 0
27.9 1.2 0
28.2 1.2 0
28.5 1.2 0
28.8 1.2 0
29.1 1.2 0
29.4 1.2 0
29.7 1.2 0
30 1.2 0
30.3 1.2 0

POINT_DATA 1326

SCALARS u double
LOOKUP_TABLE default
-1
-0.88876
-0.771421
-0.670527
-0.588769
-0.524805
-0.475963
-0.439215
-0.411696
-0.390985
-0.375178
-0.362869
-0.353049
-0.345017
-0.338292
-0.332544
-0.327544
-0.323134
-0.3192
-0.315661
-0.312454
-0.309531
-0.306855
-0.304397
-0.302132
-0.300045
-0.298124
-0.296362
-0.294756
-0.293306
-0.292012
-0.290874
-0.289888
-0.28905
-0.288351
-0.287778
-0.287318
-0.286956
-0.286677
-0.286466
-0.286309
-0.286194
-0.286112
-0.286055
-0.286014
-0.285987
-0.285969
-0.285956
-0.285948
-0.285943
-0.28594
-0.285937
-0.285936
-0.285935
-0.285935
-0.285934
-0.285934
-0.285934
-0.285934
-0.285934
-0.285934
-0.285934
-0.285934
-0.285934
-0.285934
-0.285934
-0.285934
-0.285934
-0.285934
-0.285934
-0.285934
-0.285934
-0.285934
-0.285934
-0.285934
-0.285934
-0.285934
-0.285934
-0.285934
-0.285934
-0.285934
-0.285934
-0.285934
-0.285934
-0.285934
-0.285934
-0.285934
-0.285934
-0.285934
-0.285934
-0.285934
-0.285934
-0.285934
-0.285934
-0.285934
-0.285934
-0.285934
-0.285937
-0.285942
-0.285943
-0.285943
-1
1
0.88876
0.771421
0.670527
0.588769
0.524805
0.475963
0.439215
0.411696
0.390985
0.375178
0.362869
0.353049
0.345017
0.338292
0.332544
0.327544
0.323134
0.3192
0.315661
0.312454
0.309531
0.306855
0.304397
0.302132
0.300045
0.298124
0.296362
0.294756
0.293306
0.292012
0.290874
0.289888
0.28905
0.288351
0.287778
0.287318
0.286956
0.286677
0.286466
0.286309
0.286194
0.286112
0.286055
0.286014
0.285987
0.285969
0.285956
0.285948
0.285943
0.28594
0.285937
0.285936
0.285935
0.285935
0.285934
0.285934
0.285934
0.285934
0.285934
0.285934
0.285934
0.285934
0.285934
0.285934
0.285934
0.285934
0.285934
0.285934
0.285934
0.285934
0.285934
0.285934
0.285934
0.285934
0.285934
0.285934
0.285934
0.285934
0.285934
0.285934
0.285934
0.285934
0.285934
0.285934
0.285934
0.285934
0.285934
0.285934
0.285934
0.285934
0.285934
0.285934
0.285934
0.285934
0.285934
0.285934
0.285937
0.285942
0.285943
0.285943
1
1
1.02648
1.02759
1.01578
0.998002
0.977893
0.957443
0.937721
0.919251
0.902242
0.886726
0.872643
0.859893
0.848355
0.837908
0.828438
0.819836
0.812006
0.804862
0.798329
0.792339
0.786834
0.781766
0.777092
0.772779
0.768804
0.765149
0.761804
0.758767
0.756036
0.75361
0.751485
0.749654
0.748103
0.746815
0.745764
0.744923
0.744265
0.743758
0.743376
0.743094
0.742889
0.742743
0.74264
0.742569
0.742521
0.742488
0.742467
0.742453
0.742444
0.742438
0.742434
0.742432
0.74243
0.742429
0.742429
0.742429
0.742428
0.742428
0.742428
0.742428
0.742428
0.742428
0.742428
0.742428
0.742428
0.742428
0.742428
0.742428
0.742428
0.742428
0.742428
0.742428
0.742428
0.742428
0.742428
0.742428
0.742428
0.742428
0.742429
0.742429
0.742429
0.742429
0.742429
0.742429
0.742429
0.742429
0.742429
0.742429
0.742429
0.742429
0.742429
0.742429
0.742429
0.742429
0.742429
0.742429
0.742432
0.742433
0.742488
0.742488
1
1
1.03148
1.06334
1.08875
1.10753
1.1205
1.12878
1.13347
1.13551
1.13567
1.13453
1.13251
1.12991
1.12695
1.12378
1.12051
1.11721
1.11394
1.11073
1.10761
1.10459
1.10169
1.09891
1.09625
1.09373
1.09134
1.08909
1.08697
1.08501
1.08319
1.08154
1.08005
1.07872
1.07756
1.07656
1.07572
1.07502
1.07445
1.07399
1.07364
1.07337
1.07316
1.07301
1.0729
1.07283
1.07277
1.07274
1.07271
1.0727
1.07268
1.07268
1.07267
1.07267
1.07267
1.07267
1.07267
1.07267
1.07267
1.07267
1.07266
1.07266
1.07266
1.07266
1.07266
1.07266
1.07267
1.07267
1.07267
1.07267
1.07267
1.07267
1.07267
1.07267
1.07267
1.07267
1.07267
1.07267
1.07267
1.07267
1.07267
1.07267
1.07267
1.07267
1.07267
1.07267
1.07267
1.07267
1.07267
1.07267
1.07267
1.07267
1.07267
1.07267
1.07267
1.07267
1.07267
1.07267
1.07267
1.07266
1.07271
1.07271
1
1
1.02429
1.05912
1.09356
1.12437
1.15061
1.17234
1.19008
1.2045
1.21627
1.22596
1.23403
1.24081
1.24658
1.25152
1.2558
1.25951
1.26276
1.26561
1.26812
1.27034
1.27231
1.27406
1.27562
1.27701
1.27825
1.27935
1.28033
1.28119
1.28193
1.28255
1.28307
1.28349
1.28382
1.28406
1.28424
1.28436
1.28443
1.28447
1.28449
1.28449
1.28449
1.28448
1.28446
1.28445
1.28444
1.28444
1.28443
1.28443
1.28442
1.28442
1.28442
1.28442
1.28442
1.28442
1.28442
1.28442
1.28442
1.28442
1.28442
1.28442
1.28442
1.28442
1.28442
1.28442
1.28442
1.28442
1.28442
1.28442
1.28442
1.28442
1.28442
1.28442
1.28442
1.28442
1.28442
1.28442
1.28442
1.28442
1.28442
1.28442
1.28442
1.28442
1.28442
1.28442
1.28442
1.28442
1.28442
1.28442
1.28442
1.28442
1.28442
1.28442
1.28442
1.28442
1.28442
1.28442
1.28441
1.28441
1.2844
1.2844
1
1
1.01979
1.05308
1.08837
1.1216
1.15133
1.17726
1.19964
1.21895
1.23573
1.25048
1.26359
1.27537
1.28606
1.29583
1.30481
1.31311
1.32079
1.32793
1.33458
1.34077
1.34656
1.35196
1.35702
1.36174
1.36615
1.37025
1.37405
1.37754
1.38072
1.38359
1.38614
1.38838
1.3903
1.39194
1.3933
1.39441
1.3953
1.396
1.39654
1.39695
1.39725
1.39748
1.39764
1.39775
1.39783
1.39788
1.39791
1.39794
1.39795
1.39796
1.39797
1.39797
1.39798
1.39798
1.39798
1.39798
1.39798
1.39798
1.39798
1.39798
1.39798
1.39798
1.39798
1.39798
1.39798
1.39798
1.39798
1.39798
1.39798
1.39798
1.39798
1.39798
1.39798
1.39798
1.39798
1.39798
1.39798
1.39798
1.39798
1.39798
1.39798
1.39798
1.39798
1.39798
1.39798
1.39798
1.39798
1.39798
1.39798
1.39798
1.39798
1.39798
1.39798
1.39798
1.39798
1.39798
1.39798
1.39798
1.39792
1.39792
1
1
1.01839
1.05092
1.08603
1.11947
1.14972
1.17641
1.19975
1.22017
1.23819
1.25424
1.26873
1.28194
1.29409
1.30534
1.3158
1.32558
1.33474
1.34334
1.35142
1.35902
1.36617
1.37291
1.37925
1.38522
1.39083
1.39607
1.40096
1.40549
1.40964
1.4134
1.41677
1.41975
1.42234
1.42456
1.42642
1.42796
1.42921
1.43021
1.43099
1.43158
1.43204
1.43237
1.43261
1.43279
1.43291
1.43299
1.43305
1.43309
1.43312
1.43313
1.43315
1.43315
1.43316
1.43316
1.43316
1.43316
1.43316
1.43317
1.43317
1.43317
1.43317
1.43317
1.43317
1.43317
1.43317
1.43317
1.43317
1.43317
1.43317
1.43317
1.43317
1.43317
1.43317
1.43317
1.43317
1.43317
1.43317
1.43317
1.43317
1.43317
1.43317
1.43317
1.43317
1.43317
1.43317
1.43317
1.43317
1.43317
1.43317
1.43317
1.43317
1.43317
1.43317
1.43317
1.43317
1.43317
1.43316
1.43316
1.43309
1.43309
1
1
1.01979
1.05308
1.08837
1.1216
1.15133
1.17726
1.19964
1.21895
1.23573
1.25048
1.26359
1.27537
1.28606
1.29583
1.30481
1.31311
1.32079
1.32793
1.33458
1.34077
1.34656
1.35197
1.35702
1.36174
1.36615
1.37025
1.37405
1.37754
1.38072
1.38359
1.38614
1.38838
1.3903
1.39194
1.3933
1.39441
1.3953
1.396
1.39654
1.39695
1.39725
1.39748
1.39764
1.39775
1.39783
1.39788
1.39791
1.39794
1.39795
1.39796
1.39797
1.39797
1.39798
1.39798
1.39798
1.39798
1.39798
1.39798
1.39798
1.39798
1.39798
1.39798
1.39798
1.39798
1.39798
1.39798
1.39798
1.39798
1.39798
1.39798
1.39798
1.39798
1.39798
1.39798
1.39798
1.39798
1.39798
1.39798
1.39798
1.39798
1.39798
1.39798
1.39798
1.39798
1.39798
1.39798
1.39798
1.39798
1.39798
1.39798
1.39798
1.39798
1.39798
1.39798
1.39798
1.39798
1.39798
1.39798
1.39792
1.39792
1
1
1.02429
1.05912
1.09356
1.12437
1.15061
1.17234
1.19008
1.2045
1.21627
1.22596
1.23403
1.24081
1.24658
1.25152
1.2558
1.25951
1.26276
1.26561
1.26812
1.27034
1.27231
1.27406
1.27562
1.27701
1.27825
1.27936
1.28033
1.28119
1.28193
1.28255
1.28307
1.28349
1.28382
1.28406
1.28424
1.28436
1.28443
1.28447
1.28449
1.28449
1.28449
1.28448
1.28446
1.28445
1.28444
1.28444
1.28443
1.28443
1.28442
1.28442
1.28442
1.28442
1.28442
1.28442
1.28442
1.28442
1.28442
1.28442
1.28442
1.28442
1.28442
1.28442
1.28442
1.28442
1.28442
1.28442
1.28442
1.28442
1.28442
1.28442
1.28442
1.28442
1.28442
1.28442
1.28442
1.28442
1.28442
1.28442
1.28442
1.28442
1.28442
1.28442
1.28442
1.28442
1.28442
1.28442
1.28442
1.28442
1.28442
1.28442
1.28442
1.28442
1.28442
1.28442
1.28442
1.28442
1.28441
1.28441
1.2844
1.2844
1
1
1.03148
1.06334
1.08875
1.10753
1.1205
1.12878
1.13347
1.13551
1.13567
1.13453
1.13251
1.12991
1.12695
1.12378
1.12051
1.11721
1.11394
1.11073
1.10761
1.10459
1.10169
1.09891
1.09625
1.09373
1.09134
1.08909
1.08697
1.08501
1.08319
1.08154
1.08005
1.07872
1.07756
1.07656
1.07572
1.07502
1.07445
1.07399
1.07364
1.07337
1.07316
1.07301
1.0729
1.07283
1.07277
1.07274
1.07271
1.0727
1.07268
1.07268
1.07267
1.07267
1.07267
1.07267
1.07267
1.07267
1.07267
1.07267
1.07267
1.07267
1.07267
1.07267
1.07267
1.07267
1.07267
1.07267
1.07267
1.07267
1.07267
1.07267
1.07267
1.07267
1.07267
1.07267
1.07267
1.07267
1.07267
1.07267
1.07267
1.07267
1.07267
1.07267
1.07267
1.07267
1.07267
1.07267
1.07267
1.07267
1.07267
1.07267
1.07267
1.07267
1.07267
1.07267
1.07267
1.07267
1.07267
1.07266
1.07271
1.07271
1
1
1.02648
1.02759
1.01578
0.998002
0.977893
0.957443
0.937721
0.919252
0.902242
0.886726
0.872644
0.859893
0.848355
0.837909
0.828438
0.819836
0.812007
0.804863
0.79833
0.79234
0.786835
0.781767
0.777093
0.77278
0.768804
0.765149
0.761805
0.758768
0.756037
0.753611
0.751486
0.749655
0.748104
0.746815
0.745764
0.744924
0.744265
0.743759
0.743377
0.743095
0.74289
0.742743
0.74264
0.74257
0.742521
0.742489
0.742467
0.742453
0.742444
0.742438
0.742435
0.742432
0.742431
0.74243
0.742429
0.742429
0.742429
0.742429
0.742429
0.742429
0.742429
0.742429
0.742429
0.742429
0.742429
0.742429
0.742429
0.742429
0.742429
0.742429
0.742429
0.742429
0.742429
0.742429
0.742429
0.742429
0.742429
0.742429
0.742429
0.742429
0.742429
0.742429
0.742429
0.742429
0.742429
0.742429
0.742428
0.742428
0.742428
0.742428
0.742428
0.742428
0.742428
0.742428
0.742429
0.742429
0.742432
0.742433
0.742487
0.742487
1
1
0.88876
0.771421
0.670527
0.588769
0.524805
0.475963
0.439215
0.411697
0.390985
0.375179
0.362869
0.353049
0.345018
0.338293
0.332544
0.327544
0.323134
0.319201
0.315662
0.312455
0.309532
0.306856
0.304397
0.302133
0.300046
0.298124
0.296362
0.294756
0.293306
0.292012
0.290874
0.289889
0.289051
0.288351
0.287778
0.287318
0.286957
0.286677
0.286466
0.286309
0.286195
0.286113
0.286055
0.286015
0.285987
0.285969
0.285957
0.285949
0.285943
0.28594
0.285938
0.285936
0.285936
0.285935
0.285935
0.285934
0.285934
0.285934
0.285934
0.285934
0.285934
0.285934
0.285934
0.285934
0.285934
0.285934
0.285934
0.285934
0.285934
0.285934
0.285934
0.285934
0.285934
0.285934
0.285934
0.285934
0.285934
0.285934
0.285934
0.285934
0.285934
0.285934
0.285934
0.285934
0.285934
0.285934
0.285934
0.285934
0.285934
0.285934
0.285934
0.285934
0.285934
0.285934
0.285934
0.285934
0.285937
0.285942
0.285943
0.285943
1
-1
-0.88876
-0.771421
-0.670527
-0.588769
-0.524805
-0.475963
-0.439215
-0.411697
-0.390985
-0.375179
-0.362869
-0.353049
-0.345018
-0.338293
-0.332544
-0.327544
-0.323134
-0.319201
-0.315662
-0.312455
-0.309532
-0.306856
-0.304397
-0.302133
-0.300046
-0.298124
-0.296362
-0.294756
-0.293306
-0.292012
-0.290874
-0.289889
-0.289051
-0.288351
-0.287778
-0.287318
-0.286957
-0.286677
-0.286466
-0.286309
-0.286195
-0.286113
-0.286055
-0.286015
-0.285987
-0.285969
-0.285957
-0.285949
-0.285943
-0.28594
-0.285938
-0.285936
-0.285936
-0.285935
-0.285935
-0.285934
-0.285934
-0.285934
-0.285934
-0.285934
-0.285934
-0.285934
-0.285934
-0.285934
-0.285934
-0.285934
-0.285934
-0.285934
-0.285934
-0.285934
-0.285934
-0.285934
-0.285934
-0.285934
-0.285934
-0.285934
-0.285934
-0.285934
-0.285934
-0.285934
-0.285934
-0.285934
-0.285934
-0.285934
-0.285934
-0.285934
-0.285934
-0.285934
-0.285934
-0.285934
-0.285934
-0.285934
-0.285934
-0.285934
-0.285934
-0.285934
-0.285937
-0.285942
-0.285943
-0.285943
-1
