# vtk DataFile Version 2.0
FlowField
ASCII
DATASET STRUCTURED_GRID
DIMENSIONS 102 13 1 
POINTS 1326 double
0 0 0
0.3 0 0
0.6 0 0
0.9 0 0
1.2 0 0
1.5 0 0
1.8 0 0
2.1 0 0
2.4 0 0
2.7 0 0
3 0 0
3.3 0 0
3.6 0 0
3.9 0 0
4.2 0 0
4.5 0 0
4.8 0 0
5.1 0 0
5.4 0 0
5.7 0 0
6 0 0
6.3 0 0
6.6 0 0
6.9 0 0
7.2 0 0
7.5 0 0
7.8 0 0
8.1 0 0
8.4 0 0
8.7 0 0
9 0 0
9.3 0 0
9.6 0 0
9.9 0 0
10.2 0 0
10.5 0 0
10.8 0 0
11.1 0 0
11.4 0 0
11.7 0 0
12 0 0
12.3 0 0
12.6 0 0
12.9 0 0
13.2 0 0
13.5 0 0
13.8 0 0
14.1 0 0
14.4 0 0
14.7 0 0
15 0 0
15.3 0 0
15.6 0 0
15.9 0 0
16.2 0 0
16.5 0 0
16.8 0 0
17.1 0 0
17.4 0 0
17.7 0 0
18 0 0
18.3 0 0
18.6 0 0
18.9 0 0
19.2 0 0
19.5 0 0
19.8 0 0
20.1 0 0
20.4 0 0
20.7 0 0
21 0 0
21.3 0 0
21.6 0 0
21.9 0 0
22.2 0 0
22.5 0 0
22.8 0 0
23.1 0 0
23.4 0 0
23.7 0 0
24 0 0
24.3 0 0
24.6 0 0
24.9 0 0
25.2 0 0
25.5 0 0
25.8 0 0
26.1 0 0
26.4 0 0
26.7 0 0
27 0 0
27.3 0 0
27.6 0 0
27.9 0 0
28.2 0 0
28.5 0 0
28.8 0 0
29.1 0 0
29.4 0 0
29.7 0 0
30 0 0
30.3 0 0
0 0.1 0
0.3 0.1 0
0.6 0.1 0
0.9 0.1 0
1.2 0.1 0
1.5 0.1 0
1.8 0.1 0
2.1 0.1 0
2.4 0.1 0
2.7 0.1 0
3 0.1 0
3.3 0.1 0
3.6 0.1 0
3.9 0.1 0
4.2 0.1 0
4.5 0.1 0
4.8 0.1 0
5.1 0.1 0
5.4 0.1 0
5.7 0.1 0
6 0.1 0
6.3 0.1 0
6.6 0.1 0
6.9 0.1 0
7.2 0.1 0
7.5 0.1 0
7.8 0.1 0
8.1 0.1 0
8.4 0.1 0
8.7 0.1 0
9 0.1 0
9.3 0.1 0
9.6 0.1 0
9.9 0.1 0
10.2 0.1 0
10.5 0.1 0
10.8 0.1 0
11.1 0.1 0
11.4 0.1 0
11.7 0.1 0
12 0.1 0
12.3 0.1 0
12.6 0.1 0
12.9 0.1 0
13.2 0.1 0
13.5 0.1 0
13.8 0.1 0
14.1 0.1 0
14.4 0.1 0
14.7 0.1 0
15 0.1 0
15.3 0.1 0
15.6 0.1 0
15.9 0.1 0
16.2 0.1 0
16.5 0.1 0
16.8 0.1 0
17.1 0.1 0
17.4 0.1 0
17.7 0.1 0
18 0.1 0
18.3 0.1 0
18.6 0.1 0
18.9 0.1 0
19.2 0.1 0
19.5 0.1 0
19.8 0.1 0
20.1 0.1 0
20.4 0.1 0
20.7 0.1 0
21 0.1 0
21.3 0.1 0
21.6 0.1 0
21.9 0.1 0
22.2 0.1 0
22.5 0.1 0
22.8 0.1 0
23.1 0.1 0
23.4 0.1 0
23.7 0.1 0
24 0.1 0
24.3 0.1 0
24.6 0.1 0
24.9 0.1 0
25.2 0.1 0
25.5 0.1 0
25.8 0.1 0
26.1 0.1 0
26.4 0.1 0
26.7 0.1 0
27 0.1 0
27.3 0.1 0
27.6 0.1 0
27.9 0.1 0
28.2 0.1 0
28.5 0.1 0
28.8 0.1 0
29.1 0.1 0
29.4 0.1 0
29.7 0.1 0
30 0.1 0
30.3 0.1 0
0 0.2 0
0.3 0.2 0
0.6 0.2 0
0.9 0.2 0
1.2 0.2 0
1.5 0.2 0
1.8 0.2 0
2.1 0.2 0
2.4 0.2 0
2.7 0.2 0
3 0.2 0
3.3 0.2 0
3.6 0.2 0
3.9 0.2 0
4.2 0.2 0
4.5 0.2 0
4.8 0.2 0
5.1 0.2 0
5.4 0.2 0
5.7 0.2 0
6 0.2 0
6.3 0.2 0
6.6 0.2 0
6.9 0.2 0
7.2 0.2 0
7.5 0.2 0
7.8 0.2 0
8.1 0.2 0
8.4 0.2 0
8.7 0.2 0
9 0.2 0
9.3 0.2 0
9.6 0.2 0
9.9 0.2 0
10.2 0.2 0
10.5 0.2 0
10.8 0.2 0
11.1 0.2 0
11.4 0.2 0
11.7 0.2 0
12 0.2 0
12.3 0.2 0
12.6 0.2 0
12.9 0.2 0
13.2 0.2 0
13.5 0.2 0
13.8 0.2 0
14.1 0.2 0
14.4 0.2 0
14.7 0.2 0
15 0.2 0
15.3 0.2 0
15.6 0.2 0
15.9 0.2 0
16.2 0.2 0
16.5 0.2 0
16.8 0.2 0
17.1 0.2 0
17.4 0.2 0
17.7 0.2 0
18 0.2 0
18.3 0.2 0
18.6 0.2 0
18.9 0.2 0
19.2 0.2 0
19.5 0.2 0
19.8 0.2 0
20.1 0.2 0
20.4 0.2 0
20.7 0.2 0
21 0.2 0
21.3 0.2 0
21.6 0.2 0
21.9 0.2 0
22.2 0.2 0
22.5 0.2 0
22.8 0.2 0
23.1 0.2 0
23.4 0.2 0
23.7 0.2 0
24 0.2 0
24.3 0.2 0
24.6 0.2 0
24.9 0.2 0
25.2 0.2 0
25.5 0.2 0
25.8 0.2 0
26.1 0.2 0
26.4 0.2 0
26.7 0.2 0
27 0.2 0
27.3 0.2 0
27.6 0.2 0
27.9 0.2 0
28.2 0.2 0
28.5 0.2 0
28.8 0.2 0
29.1 0.2 0
29.4 0.2 0
29.7 0.2 0
30 0.2 0
30.3 0.2 0
0 0.3 0
0.3 0.3 0
0.6 0.3 0
0.9 0.3 0
1.2 0.3 0
1.5 0.3 0
1.8 0.3 0
2.1 0.3 0
2.4 0.3 0
2.7 0.3 0
3 0.3 0
3.3 0.3 0
3.6 0.3 0
3.9 0.3 0
4.2 0.3 0
4.5 0.3 0
4.8 0.3 0
5.1 0.3 0
5.4 0.3 0
5.7 0.3 0
6 0.3 0
6.3 0.3 0
6.6 0.3 0
6.9 0.3 0
7.2 0.3 0
7.5 0.3 0
7.8 0.3 0
8.1 0.3 0
8.4 0.3 0
8.7 0.3 0
9 0.3 0
9.3 0.3 0
9.6 0.3 0
9.9 0.3 0
10.2 0.3 0
10.5 0.3 0
10.8 0.3 0
11.1 0.3 0
11.4 0.3 0
11.7 0.3 0
12 0.3 0
12.3 0.3 0
12.6 0.3 0
12.9 0.3 0
13.2 0.3 0
13.5 0.3 0
13.8 0.3 0
14.1 0.3 0
14.4 0.3 0
14.7 0.3 0
15 0.3 0
15.3 0.3 0
15.6 0.3 0
15.9 0.3 0
16.2 0.3 0
16.5 0.3 0
16.8 0.3 0
17.1 0.3 0
17.4 0.3 0
17.7 0.3 0
18 0.3 0
18.3 0.3 0
18.6 0.3 0
18.9 0.3 0
19.2 0.3 0
19.5 0.3 0
19.8 0.3 0
20.1 0.3 0
20.4 0.3 0
20.7 0.3 0
21 0.3 0
21.3 0.3 0
21.6 0.3 0
21.9 0.3 0
22.2 0.3 0
22.5 0.3 0
22.8 0.3 0
23.1 0.3 0
23.4 0.3 0
23.7 0.3 0
24 0.3 0
24.3 0.3 0
24.6 0.3 0
24.9 0.3 0
25.2 0.3 0
25.5 0.3 0
25.8 0.3 0
26.1 0.3 0
26.4 0.3 0
26.7 0.3 0
27 0.3 0
27.3 0.3 0
27.6 0.3 0
27.9 0.3 0
28.2 0.3 0
28.5 0.3 0
28.8 0.3 0
29.1 0.3 0
29.4 0.3 0
29.7 0.3 0
30 0.3 0
30.3 0.3 0
0 0.4 0
0.3 0.4 0
0.6 0.4 0
0.9 0.4 0
1.2 0.4 0
1.5 0.4 0
1.8 0.4 0
2.1 0.4 0
2.4 0.4 0
2.7 0.4 0
3 0.4 0
3.3 0.4 0
3.6 0.4 0
3.9 0.4 0
4.2 0.4 0
4.5 0.4 0
4.8 0.4 0
5.1 0.4 0
5.4 0.4 0
5.7 0.4 0
6 0.4 0
6.3 0.4 0
6.6 0.4 0
6.9 0.4 0
7.2 0.4 0
7.5 0.4 0
7.8 0.4 0
8.1 0.4 0
8.4 0.4 0
8.7 0.4 0
9 0.4 0
9.3 0.4 0
9.6 0.4 0
9.9 0.4 0
10.2 0.4 0
10.5 0.4 0
10.8 0.4 0
11.1 0.4 0
11.4 0.4 0
11.7 0.4 0
12 0.4 0
12.3 0.4 0
12.6 0.4 0
12.9 0.4 0
13.2 0.4 0
13.5 0.4 0
13.8 0.4 0
14.1 0.4 0
14.4 0.4 0
14.7 0.4 0
15 0.4 0
15.3 0.4 0
15.6 0.4 0
15.9 0.4 0
16.2 0.4 0
16.5 0.4 0
16.8 0.4 0
17.1 0.4 0
17.4 0.4 0
17.7 0.4 0
18 0.4 0
18.3 0.4 0
18.6 0.4 0
18.9 0.4 0
19.2 0.4 0
19.5 0.4 0
19.8 0.4 0
20.1 0.4 0
20.4 0.4 0
20.7 0.4 0
21 0.4 0
21.3 0.4 0
21.6 0.4 0
21.9 0.4 0
22.2 0.4 0
22.5 0.4 0
22.8 0.4 0
23.1 0.4 0
23.4 0.4 0
23.7 0.4 0
24 0.4 0
24.3 0.4 0
24.6 0.4 0
24.9 0.4 0
25.2 0.4 0
25.5 0.4 0
25.8 0.4 0
26.1 0.4 0
26.4 0.4 0
26.7 0.4 0
27 0.4 0
27.3 0.4 0
27.6 0.4 0
27.9 0.4 0
28.2 0.4 0
28.5 0.4 0
28.8 0.4 0
29.1 0.4 0
29.4 0.4 0
29.7 0.4 0
30 0.4 0
30.3 0.4 0
0 0.5 0
0.3 0.5 0
0.6 0.5 0
0.9 0.5 0
1.2 0.5 0
1.5 0.5 0
1.8 0.5 0
2.1 0.5 0
2.4 0.5 0
2.7 0.5 0
3 0.5 0
3.3 0.5 0
3.6 0.5 0
3.9 0.5 0
4.2 0.5 0
4.5 0.5 0
4.8 0.5 0
5.1 0.5 0
5.4 0.5 0
5.7 0.5 0
6 0.5 0
6.3 0.5 0
6.6 0.5 0
6.9 0.5 0
7.2 0.5 0
7.5 0.5 0
7.8 0.5 0
8.1 0.5 0
8.4 0.5 0
8.7 0.5 0
9 0.5 0
9.3 0.5 0
9.6 0.5 0
9.9 0.5 0
10.2 0.5 0
10.5 0.5 0
10.8 0.5 0
11.1 0.5 0
11.4 0.5 0
11.7 0.5 0
12 0.5 0
12.3 0.5 0
12.6 0.5 0
12.9 0.5 0
13.2 0.5 0
13.5 0.5 0
13.8 0.5 0
14.1 0.5 0
14.4 0.5 0
14.7 0.5 0
15 0.5 0
15.3 0.5 0
15.6 0.5 0
15.9 0.5 0
16.2 0.5 0
16.5 0.5 0
16.8 0.5 0
17.1 0.5 0
17.4 0.5 0
17.7 0.5 0
18 0.5 0
18.3 0.5 0
18.6 0.5 0
18.9 0.5 0
19.2 0.5 0
19.5 0.5 0
19.8 0.5 0
20.1 0.5 0
20.4 0.5 0
20.7 0.5 0
21 0.5 0
21.3 0.5 0
21.6 0.5 0
21.9 0.5 0
22.2 0.5 0
22.5 0.5 0
22.8 0.5 0
23.1 0.5 0
23.4 0.5 0
23.7 0.5 0
24 0.5 0
24.3 0.5 0
24.6 0.5 0
24.9 0.5 0
25.2 0.5 0
25.5 0.5 0
25.8 0.5 0
26.1 0.5 0
26.4 0.5 0
26.7 0.5 0
27 0.5 0
27.3 0.5 0
27.6 0.5 0
27.9 0.5 0
28.2 0.5 0
28.5 0.5 0
28.8 0.5 0
29.1 0.5 0
29.4 0.5 0
29.7 0.5 0
30 0.5 0
30.3 0.5 0
0 0.6 0
0.3 0.6 0
0.6 0.6 0
0.9 0.6 0
1.2 0.6 0
1.5 0.6 0
1.8 0.6 0
2.1 0.6 0
2.4 0.6 0
2.7 0.6 0
3 0.6 0
3.3 0.6 0
3.6 0.6 0
3.9 0.6 0
4.2 0.6 0
4.5 0.6 0
4.8 0.6 0
5.1 0.6 0
5.4 0.6 0
5.7 0.6 0
6 0.6 0
6.3 0.6 0
6.6 0.6 0
6.9 0.6 0
7.2 0.6 0
7.5 0.6 0
7.8 0.6 0
8.1 0.6 0
8.4 0.6 0
8.7 0.6 0
9 0.6 0
9.3 0.6 0
9.6 0.6 0
9.9 0.6 0
10.2 0.6 0
10.5 0.6 0
10.8 0.6 0
11.1 0.6 0
11.4 0.6 0
11.7 0.6 0
12 0.6 0
12.3 0.6 0
12.6 0.6 0
12.9 0.6 0
13.2 0.6 0
13.5 0.6 0
13.8 0.6 0
14.1 0.6 0
14.4 0.6 0
14.7 0.6 0
15 0.6 0
15.3 0.6 0
15.6 0.6 0
15.9 0.6 0
16.2 0.6 0
16.5 0.6 0
16.8 0.6 0
17.1 0.6 0
17.4 0.6 0
17.7 0.6 0
18 0.6 0
18.3 0.6 0
18.6 0.6 0
18.9 0.6 0
19.2 0.6 0
19.5 0.6 0
19.8 0.6 0
20.1 0.6 0
20.4 0.6 0
20.7 0.6 0
21 0.6 0
21.3 0.6 0
21.6 0.6 0
21.9 0.6 0
22.2 0.6 0
22.5 0.6 0
22.8 0.6 0
23.1 0.6 0
23.4 0.6 0
23.7 0.6 0
24 0.6 0
24.3 0.6 0
24.6 0.6 0
24.9 0.6 0
25.2 0.6 0
25.5 0.6 0
25.8 0.6 0
26.1 0.6 0
26.4 0.6 0
26.7 0.6 0
27 0.6 0
27.3 0.6 0
27.6 0.6 0
27.9 0.6 0
28.2 0.6 0
28.5 0.6 0
28.8 0.6 0
29.1 0.6 0
29.4 0.6 0
29.7 0.6 0
30 0.6 0
30.3 0.6 0
0 0.7 0
0.3 0.7 0
0.6 0.7 0
0.9 0.7 0
1.2 0.7 0
1.5 0.7 0
1.8 0.7 0
2.1 0.7 0
2.4 0.7 0
2.7 0.7 0
3 0.7 0
3.3 0.7 0
3.6 0.7 0
3.9 0.7 0
4.2 0.7 0
4.5 0.7 0
4.8 0.7 0
5.1 0.7 0
5.4 0.7 0
5.7 0.7 0
6 0.7 0
6.3 0.7 0
6.6 0.7 0
6.9 0.7 0
7.2 0.7 0
7.5 0.7 0
7.8 0.7 0
8.1 0.7 0
8.4 0.7 0
8.7 0.7 0
9 0.7 0
9.3 0.7 0
9.6 0.7 0
9.9 0.7 0
10.2 0.7 0
10.5 0.7 0
10.8 0.7 0
11.1 0.7 0
11.4 0.7 0
11.7 0.7 0
12 0.7 0
12.3 0.7 0
12.6 0.7 0
12.9 0.7 0
13.2 0.7 0
13.5 0.7 0
13.8 0.7 0
14.1 0.7 0
14.4 0.7 0
14.7 0.7 0
15 0.7 0
15.3 0.7 0
15.6 0.7 0
15.9 0.7 0
16.2 0.7 0
16.5 0.7 0
16.8 0.7 0
17.1 0.7 0
17.4 0.7 0
17.7 0.7 0
18 0.7 0
18.3 0.7 0
18.6 0.7 0
18.9 0.7 0
19.2 0.7 0
19.5 0.7 0
19.8 0.7 0
20.1 0.7 0
20.4 0.7 0
20.7 0.7 0
21 0.7 0
21.3 0.7 0
21.6 0.7 0
21.9 0.7 0
22.2 0.7 0
22.5 0.7 0
22.8 0.7 0
23.1 0.7 0
23.4 0.7 0
23.7 0.7 0
24 0.7 0
24.3 0.7 0
24.6 0.7 0
24.9 0.7 0
25.2 0.7 0
25.5 0.7 0
25.8 0.7 0
26.1 0.7 0
26.4 0.7 0
26.7 0.7 0
27 0.7 0
27.3 0.7 0
27.6 0.7 0
27.9 0.7 0
28.2 0.7 0
28.5 0.7 0
28.8 0.7 0
29.1 0.7 0
29.4 0.7 0
29.7 0.7 0
30 0.7 0
30.3 0.7 0
0 0.8 0
0.3 0.8 0
0.6 0.8 0
0.9 0.8 0
1.2 0.8 0
1.5 0.8 0
1.8 0.8 0
2.1 0.8 0
2.4 0.8 0
2.7 0.8 0
3 0.8 0
3.3 0.8 0
3.6 0.8 0
3.9 0.8 0
4.2 0.8 0
4.5 0.8 0
4.8 0.8 0
5.1 0.8 0
5.4 0.8 0
5.7 0.8 0
6 0.8 0
6.3 0.8 0
6.6 0.8 0
6.9 0.8 0
7.2 0.8 0
7.5 0.8 0
7.8 0.8 0
8.1 0.8 0
8.4 0.8 0
8.7 0.8 0
9 0.8 0
9.3 0.8 0
9.6 0.8 0
9.9 0.8 0
10.2 0.8 0
10.5 0.8 0
10.8 0.8 0
11.1 0.8 0
11.4 0.8 0
11.7 0.8 0
12 0.8 0
12.3 0.8 0
12.6 0.8 0
12.9 0.8 0
13.2 0.8 0
13.5 0.8 0
13.8 0.8 0
14.1 0.8 0
14.4 0.8 0
14.7 0.8 0
15 0.8 0
15.3 0.8 0
15.6 0.8 0
15.9 0.8 0
16.2 0.8 0
16.5 0.8 0
16.8 0.8 0
17.1 0.8 0
17.4 0.8 0
17.7 0.8 0
18 0.8 0
18.3 0.8 0
18.6 0.8 0
18.9 0.8 0
19.2 0.8 0
19.5 0.8 0
19.8 0.8 0
20.1 0.8 0
20.4 0.8 0
20.7 0.8 0
21 0.8 0
21.3 0.8 0
21.6 0.8 0
21.9 0.8 0
22.2 0.8 0
22.5 0.8 0
22.8 0.8 0
23.1 0.8 0
23.4 0.8 0
23.7 0.8 0
24 0.8 0
24.3 0.8 0
24.6 0.8 0
24.9 0.8 0
25.2 0.8 0
25.5 0.8 0
25.8 0.8 0
26.1 0.8 0
26.4 0.8 0
26.7 0.8 0
27 0.8 0
27.3 0.8 0
27.6 0.8 0
27.9 0.8 0
28.2 0.8 0
28.5 0.8 0
28.8 0.8 0
29.1 0.8 0
29.4 0.8 0
29.7 0.8 0
30 0.8 0
30.3 0.8 0
0 0.9 0
0.3 0.9 0
0.6 0.9 0
0.9 0.9 0
1.2 0.9 0
1.5 0.9 0
1.8 0.9 0
2.1 0.9 0
2.4 0.9 0
2.7 0.9 0
3 0.9 0
3.3 0.9 0
3.6 0.9 0
3.9 0.9 0
4.2 0.9 0
4.5 0.9 0
4.8 0.9 0
5.1 0.9 0
5.4 0.9 0
5.7 0.9 0
6 0.9 0
6.3 0.9 0
6.6 0.9 0
6.9 0.9 0
7.2 0.9 0
7.5 0.9 0
7.8 0.9 0
8.1 0.9 0
8.4 0.9 0
8.7 0.9 0
9 0.9 0
9.3 0.9 0
9.6 0.9 0
9.9 0.9 0
10.2 0.9 0
10.5 0.9 0
10.8 0.9 0
11.1 0.9 0
11.4 0.9 0
11.7 0.9 0
12 0.9 0
12.3 0.9 0
12.6 0.9 0
12.9 0.9 0
13.2 0.9 0
13.5 0.9 0
13.8 0.9 0
14.1 0.9 0
14.4 0.9 0
14.7 0.9 0
15 0.9 0
15.3 0.9 0
15.6 0.9 0
15.9 0.9 0
16.2 0.9 0
16.5 0.9 0
16.8 0.9 0
17.1 0.9 0
17.4 0.9 0
17.7 0.9 0
18 0.9 0
18.3 0.9 0
18.6 0.9 0
18.9 0.9 0
19.2 0.9 0
19.5 0.9 0
19.8 0.9 0
20.1 0.9 0
20.4 0.9 0
20.7 0.9 0
21 0.9 0
21.3 0.9 0
21.6 0.9 0
21.9 0.9 0
22.2 0.9 0
22.5 0.9 0
22.8 0.9 0
23.1 0.9 0
23.4 0.9 0
23.7 0.9 0
24 0.9 0
24.3 0.9 0
24.6 0.9 0
24.9 0.9 0
25.2 0.9 0
25.5 0.9 0
25.8 0.9 0
26.1 0.9 0
26.4 0.9 0
26.7 0.9 0
27 0.9 0
27.3 0.9 0
27.6 0.9 0
27.9 0.9 0
28.2 0.9 0
28.5 0.9 0
28.8 0.9 0
29.1 0.9 0
29.4 0.9 0
29.7 0.9 0
30 0.9 0
30.3 0.9 0
0 1 0
0.3 1 0
0.6 1 0
0.9 1 0
1.2 1 0
1.5 1 0
1.8 1 0
2.1 1 0
2.4 1 0
2.7 1 0
3 1 0
3.3 1 0
3.6 1 0
3.9 1 0
4.2 1 0
4.5 1 0
4.8 1 0
5.1 1 0
5.4 1 0
5.7 1 0
6 1 0
6.3 1 0
6.6 1 0
6.9 1 0
7.2 1 0
7.5 1 0
7.8 1 0
8.1 1 0
8.4 1 0
8.7 1 0
9 1 0
9.3 1 0
9.6 1 0
9.9 1 0
10.2 1 0
10.5 1 0
10.8 1 0
11.1 1 0
11.4 1 0
11.7 1 0
12 1 0
12.3 1 0
12.6 1 0
12.9 1 0
13.2 1 0
13.5 1 0
13.8 1 0
14.1 1 0
14.4 1 0
14.7 1 0
15 1 0
15.3 1 0
15.6 1 0
15.9 1 0
16.2 1 0
16.5 1 0
16.8 1 0
17.1 1 0
17.4 1 0
17.7 1 0
18 1 0
18.3 1 0
18.6 1 0
18.9 1 0
19.2 1 0
19.5 1 0
19.8 1 0
20.1 1 0
20.4 1 0
20.7 1 0
21 1 0
21.3 1 0
21.6 1 0
21.9 1 0
22.2 1 0
22.5 1 0
22.8 1 0
23.1 1 0
23.4 1 0
23.7 1 0
24 1 0
24.3 1 0
24.6 1 0
24.9 1 0
25.2 1 0
25.5 1 0
25.8 1 0
26.1 1 0
26.4 1 0
26.7 1 0
27 1 0
27.3 1 0
27.6 1 0
27.9 1 0
28.2 1 0
28.5 1 0
28.8 1 0
29.1 1 0
29.4 1 0
29.7 1 0
30 1 0
30.3 1 0
0 1.1 0
0.3 1.1 0
0.6 1.1 0
0.9 1.1 0
1.2 1.1 0
1.5 1.1 0
1.8 1.1 0
2.1 1.1 0
2.4 1.1 0
2.7 1.1 0
3 1.1 0
3.3 1.1 0
3.6 1.1 0
3.9 1.1 0
4.2 1.1 0
4.5 1.1 0
4.8 1.1 0
5.1 1.1 0
5.4 1.1 0
5.7 1.1 0
6 1.1 0
6.3 1.1 0
6.6 1.1 0
6.9 1.1 0
7.2 1.1 0
7.5 1.1 0
7.8 1.1 0
8.1 1.1 0
8.4 1.1 0
8.7 1.1 0
9 1.1 0
9.3 1.1 0
9.6 1.1 0
9.9 1.1 0
10.2 1.1 0
10.5 1.1 0
10.8 1.1 0
11.1 1.1 0
11.4 1.1 0
11.7 1.1 0
12 1.1 0
12.3 1.1 0
12.6 1.1 0
12.9 1.1 0
13.2 1.1 0
13.5 1.1 0
13.8 1.1 0
14.1 1.1 0
14.4 1.1 0
14.7 1.1 0
15 1.1 0
15.3 1.1 0
15.6 1.1 0
15.9 1.1 0
16.2 1.1 0
16.5 1.1 0
16.8 1.1 0
17.1 1.1 0
17.4 1.1 0
17.7 1.1 0
18 1.1 0
18.3 1.1 0
18.6 1.1 0
18.9 1.1 0
19.2 1.1 0
19.5 1.1 0
19.8 1.1 0
20.1 1.1 0
20.4 1.1 0
20.7 1.1 0
21 1.1 0
21.3 1.1 0
21.6 1.1 0
21.9 1.1 0
22.2 1.1 0
22.5 1.1 0
22.8 1.1 0
23.1 1.1 0
23.4 1.1 0
23.7 1.1 0
24 1.1 0
24.3 1.1 0
24.6 1.1 0
24.9 1.1 0
25.2 1.1 0
25.5 1.1 0
25.8 1.1 0
26.1 1.1 0
26.4 1.1 0
26.7 1.1 0
27 1.1 0
27.3 1.1 0
27.6 1.1 0
27.9 1.1 0
28.2 1.1 0
28.5 1.1 0
28.8 1.1 0
29.1 1.1 0
29.4 1.1 0
29.7 1.1 0
30 1.1 0
30.3 1.1 0
0 1.2 0
0.3 1.2 0
0.6 1.2 0
0.9 1.2 0
1.2 1.2 0
1.5 1.2 0
1.8 1.2 0
2.1 1.2 0
2.4 1.2 0
2.7 1.2 0
3 1.2 0
3.3 1.2 0
3.6 1.2 0
3.9 1.2 0
4.2 1.2 0
4.5 1.2 0
4.8 1.2 0
5.1 1.2 0
5.4 1.2 0
5.7 1.2 0
6 1.2 0
6.3 1.2 0
6.6 1.2 0
6.9 1.2 0
7.2 1.2 0
7.5 1.2 0
7.8 1.2 0
8.1 1.2 0
8.4 1.2 0
8.7 1.2 0
9 1.2 0
9.3 1.2 0
9.6 1.2 0
9.9 1.2 0
10.2 1.2 0
10.5 1.2 0
10.8 1.2 0
11.1 1.2 0
11.4 1.2 0
11.7 1.2 0
12 1.2 0
12.3 1.2 0
12.6 1.2 0
12.9 1.2 0
13.2 1.2 0
13.5 1.2 0
13.8 1.2 0
14.1 1.2 0
14.4 1.2 0
14.7 1.2 0
15 1.2 0
15.3 1.2 0
15.6 1.2 0
15.9 1.2 0
16.2 1.2 0
16.5 1.2 0
16.8 1.2 0
17.1 1.2 0
17.4 1.2 0
17.7 1.2 0
18 1.2 0
18.3 1.2 0
18.6 1.2 0
18.9 1.2 0
19.2 1.2 0
19.5 1.2 0
19.8 1.2 0
20.1 1.2 0
20.4 1.2 0
20.7 1.2 0
21 1.2 0
21.3 1.2 0
21.6 1.2 0
21.9 1.2 0
22.2 1.2 0
22.5 1.2 0
22.8 1.2 0
23.1 1.2 0
23.4 1.2 0
23.7 1.2 0
24 1.2 0
24.3 1.2 0
24.6 1.2 0
24.9 1.2 0
25.2 1.2 0
25.5 1.2 0
25.8 1.2 0
26.1 1.2 0
26.4 1.2 0
26.7 1.2 0
27 1.2 0
27.3 1.2 0
27.6 1.2 0
27.9 1.2 0
28.2 1.2 0
28.5 1.2 0
28.8 1.2 0
29.1 1.2 0
29.4 1.2 0
29.7 1.2 0
30 1.2 0
30.3 1.2 0

POINT_DATA 1326

SCALARS phi double
LOOKUP_TABLE default
1
1
1
1
0.999999
0.999994
0.999983
0.999957
0.99991
0.99983
0.999706
0.999525
0.999278
0.998951
0.998536
0.998024
0.997406
0.996678
0.995833
0.994869
0.993783
0.992574
0.991241
0.989786
0.98821
0.986517
0.984708
0.982788
0.98076
0.97863
0.976401
0.974079
0.971669
0.969175
0.966603
0.963957
0.961243
0.958466
0.95563
0.952739
0.949799
0.946814
0.943788
0.940724
0.937628
0.934501
0.931349
0.928174
0.924979
0.921767
0.91854
0.9153
0.912049
0.908788
0.905518
0.902239
0.898949
0.895648
0.892333
0.889001
0.885649
0.882273
0.878867
0.875426
0.871944
0.868413
0.864827
0.861178
0.857459
0.853661
0.849778
0.845801
0.841724
0.837538
0.833237
0.828815
0.824267
0.819586
0.814768
0.809809
0.804706
0.799457
0.794058
0.78851
0.78281
0.776961
0.770961
0.764812
0.758517
0.752077
0.745496
0.738778
0.731924
0.724942
0.717832
0.710608
0.703249
0.695847
0.688114
0.681066
0.671167
0.671167
1
1
1
1
0.999999
0.999994
0.999983
0.999957
0.99991
0.99983
0.999706
0.999525
0.999278
0.998951
0.998536
0.998024
0.997406
0.996678
0.995833
0.994869
0.993783
0.992574
0.991241
0.989786
0.98821
0.986517
0.984708
0.982788
0.98076
0.97863
0.976401
0.974079
0.971669
0.969175
0.966603
0.963957
0.961243
0.958466
0.95563
0.952739
0.949799
0.946814
0.943788
0.940724
0.937628
0.934501
0.931349
0.928174
0.924979
0.921767
0.91854
0.9153
0.912049
0.908788
0.905518
0.902239
0.898949
0.895648
0.892333
0.889001
0.885649
0.882273
0.878867
0.875426
0.871944
0.868413
0.864827
0.861178
0.857459
0.853661
0.849778
0.845801
0.841724
0.837538
0.833237
0.828815
0.824267
0.819586
0.814768
0.809809
0.804706
0.799457
0.794058
0.78851
0.78281
0.776961
0.770961
0.764812
0.758517
0.752077
0.745496
0.738778
0.731924
0.724942
0.717832
0.710608
0.703249
0.695847
0.688114
0.681066
0.671167
0.671167
1
1
1
0.999996
0.999983
0.999954
0.999898
0.999804
0.999658
0.999446
0.999157
0.998778
0.998299
0.997714
0.997014
0.996196
0.995256
0.994192
0.993003
0.991689
0.990252
0.988694
0.987016
0.985224
0.983319
0.981307
0.979192
0.976978
0.974671
0.972275
0.969796
0.967238
0.964606
0.961905
0.959141
0.956317
0.953439
0.950511
0.947537
0.944521
0.941468
0.93838
0.935263
0.932119
0.928952
0.925765
0.92256
0.919341
0.916111
0.912871
0.909624
0.906373
0.903118
0.899862
0.896605
0.893349
0.890093
0.886839
0.883585
0.88033
0.877073
0.873812
0.870544
0.867267
0.863975
0.860666
0.857333
0.853973
0.85058
0.847147
0.843669
0.840139
0.83655
0.832898
0.829174
0.825373
0.821489
0.817515
0.813446
0.809278
0.805004
0.800621
0.796125
0.791512
0.786779
0.781925
0.776946
0.771841
0.76661
0.761253
0.755769
0.750159
0.744424
0.738566
0.732585
0.726492
0.720259
0.713988
0.707358
0.701443
0.692726
0.692726
0.999997
1
0.99998
0.999896
0.999724
0.999434
0.998999
0.998397
0.997613
0.996636
0.995464
0.994099
0.992547
0.990816
0.988916
0.986859
0.984655
0.982317
0.979854
0.977278
0.974598
0.971826
0.968969
0.966037
0.963036
0.959976
0.956862
0.953702
0.9505
0.947262
0.943993
0.940698
0.937381
0.934046
0.930696
0.927334
0.923965
0.920589
0.91721
0.913831
0.910453
0.907078
0.903709
0.900346
0.896992
0.893648
0.890316
0.886995
0.883689
0.880397
0.877121
0.873861
0.870618
0.867394
0.864187
0.861
0.857831
0.854682
0.851551
0.848439
0.845345
0.842269
0.839208
0.836162
0.833128
0.830106
0.827091
0.824082
0.821076
0.818069
0.815057
0.812037
0.809003
0.805953
0.802881
0.799782
0.796652
0.793486
0.790279
0.787025
0.783721
0.780361
0.776941
0.773456
0.769902
0.766276
0.762573
0.75879
0.754924
0.750973
0.746933
0.742802
0.738579
0.734263
0.72985
0.725347
0.720727
0.716079
0.711119
0.706744
0.700133
0.700133
0.999999
1
0.99943
0.998224
0.996402
0.994008
0.991093
0.987716
0.983939
0.979828
0.975446
0.970853
0.966102
0.961239
0.9563
0.951318
0.946317
0.94132
0.936342
0.931396
0.926494
0.921643
0.91685
0.91212
0.907456
0.902862
0.898337
0.893885
0.889504
0.885196
0.880959
0.876793
0.872697
0.868669
0.864709
0.860816
0.856986
0.85322
0.849516
0.845871
0.842285
0.838756
0.835282
0.831862
0.828495
0.825178
0.821912
0.818694
0.815523
0.812398
0.809318
0.806282
0.803288
0.800335
0.797423
0.79455
0.791716
0.788919
0.786159
0.783434
0.780743
0.778085
0.77546
0.772866
0.770301
0.767765
0.765255
0.76277
0.760309
0.757868
0.755447
0.753043
0.750653
0.748275
0.745906
0.743543
0.741184
0.738824
0.736461
0.734091
0.731711
0.729317
0.726905
0.724473
0.722016
0.71953
0.717013
0.714461
0.711869
0.709236
0.706557
0.70383
0.701051
0.698218
0.695327
0.692382
0.689359
0.686321
0.683066
0.680212
0.675845
0.675845
1.00149
0.998508
0.989831
0.978334
0.965614
0.952521
0.939508
0.926817
0.914586
0.90289
0.891766
0.881225
0.871261
0.861853
0.852973
0.844592
0.836675
0.829189
0.822103
0.815387
0.809012
0.802953
0.797186
0.791689
0.786442
0.781426
0.776627
0.772028
0.767615
0.763377
0.759301
0.755378
0.751598
0.747951
0.74443
0.741028
0.737737
0.734551
0.731464
0.728471
0.725567
0.722746
0.720006
0.717341
0.714749
0.712224
0.709765
0.707368
0.70503
0.702749
0.700522
0.698346
0.69622
0.694142
0.692108
0.690119
0.688171
0.686263
0.684394
0.682562
0.680766
0.679004
0.677275
0.675578
0.673912
0.672274
0.670665
0.669082
0.667525
0.665992
0.664482
0.662993
0.661524
0.660074
0.65864
0.657222
0.655817
0.654425
0.653042
0.651667
0.650298
0.648933
0.647569
0.646205
0.644838
0.643465
0.642085
0.640694
0.63929
0.637871
0.636434
0.634977
0.633496
0.63199
0.630455
0.628893
0.627288
0.625675
0.62394
0.622423
0.620075
0.620075
1.04825
0.951752
0.875703
0.818253
0.774815
0.7415
0.715492
0.694815
0.678089
0.664344
0.652885
0.64321
0.634947
0.627818
0.62161
0.616159
0.611336
0.607038
0.603184
0.599708
0.596557
0.593685
0.591057
0.588642
0.586414
0.584353
0.582438
0.580656
0.578992
0.577435
0.575975
0.574602
0.57331
0.572092
0.57094
0.569852
0.56882
0.567842
0.566913
0.56603
0.56519
0.56439
0.563628
0.562901
0.562207
0.561545
0.560912
0.560306
0.559727
0.559173
0.558642
0.558134
0.557647
0.557181
0.556733
0.556304
0.555892
0.555497
0.555118
0.554754
0.554404
0.554069
0.553746
0.553436
0.553138
0.552852
0.552576
0.552311
0.552055
0.551809
0.551572
0.551342
0.55112
0.550906
0.550697
0.550494
0.550296
0.550102
0.549911
0.549723
0.549536
0.54935
0.549164
0.548976
0.548785
0.548591
0.548391
0.548185
0.547971
0.547748
0.547514
0.547267
0.547006
0.54673
0.546435
0.546123
0.545786
0.545435
0.545035
0.544681
0.544083
0.544083
-0.0446953
0.0446953
0.107508
0.152458
0.185771
0.211397
0.231802
0.248527
0.262546
0.274503
0.284836
0.293865
0.301831
0.308922
0.315285
0.32104
0.326285
0.331098
0.335543
0.339671
0.343527
0.347145
0.350555
0.353783
0.356848
0.359768
0.362558
0.365231
0.367799
0.37027
0.372654
0.374956
0.377185
0.379346
0.381443
0.383482
0.385467
0.387401
0.389287
0.39113
0.392931
0.394693
0.396418
0.398109
0.399767
0.401394
0.402992
0.404563
0.406107
0.407626
0.409121
0.410593
0.412043
0.413473
0.414882
0.416272
0.417644
0.418997
0.420334
0.421654
0.422957
0.424245
0.425518
0.426776
0.42802
0.429249
0.430465
0.431668
0.432858
0.434034
0.435198
0.43635
0.437489
0.438616
0.439731
0.440833
0.441924
0.443003
0.444069
0.445124
0.446165
0.447195
0.448211
0.449214
0.450203
0.451179
0.45214
0.453085
0.454015
0.454928
0.455824
0.456702
0.457561
0.4584
0.459218
0.460012
0.460785
0.461527
0.462265
0.462898
0.463759
0.463759
-0.00141662
0.00141662
0.00819779
0.0166628
0.0258774
0.0354226
0.0450904
0.0547523
0.0643113
0.0736887
0.0828235
0.0916734
0.100213
0.108431
0.116327
0.123909
0.131188
0.138179
0.144897
0.15136
0.157583
0.163582
0.169371
0.174965
0.180376
0.185617
0.190698
0.19563
0.200421
0.205082
0.20962
0.214041
0.218354
0.222564
0.226678
0.230699
0.234634
0.238487
0.242262
0.245962
0.249592
0.253155
0.256653
0.260089
0.263467
0.266788
0.270055
0.273269
0.276433
0.279549
0.282617
0.28564
0.28862
0.291556
0.294452
0.297307
0.300123
0.302902
0.305643
0.308348
0.311019
0.313654
0.316256
0.318826
0.321363
0.323868
0.326343
0.328787
0.331202
0.333587
0.335944
0.338272
0.340572
0.342845
0.34509
0.347309
0.349501
0.351666
0.353805
0.355918
0.358004
0.360065
0.362099
0.364107
0.366089
0.368043
0.369971
0.371871
0.373743
0.375587
0.377401
0.379186
0.38094
0.382662
0.384353
0.386008
0.387633
0.389206
0.390797
0.392169
0.394084
0.394084
-1.11745e-05
1.11745e-05
0.00042735
0.00124909
0.0024865
0.00414882
0.00623841
0.00874491
0.0116437
0.0148985
0.0184666
0.0223034
0.0263657
0.0306143
0.0350145
0.0395361
0.0441535
0.0488449
0.0535919
0.058379
0.0631933
0.0680237
0.0728611
0.0776978
0.0825273
0.0873442
0.0921439
0.0969225
0.101677
0.106404
0.111102
0.115769
0.120403
0.125003
0.129567
0.134094
0.138584
0.143036
0.14745
0.151824
0.156158
0.160453
0.164707
0.168921
0.173093
0.177225
0.181317
0.185367
0.189376
0.193344
0.197271
0.201158
0.205003
0.208809
0.212573
0.216298
0.219982
0.223627
0.227232
0.230797
0.234324
0.237812
0.241261
0.244671
0.248044
0.251379
0.254676
0.257936
0.261159
0.264346
0.267495
0.270609
0.273686
0.276727
0.279732
0.282701
0.285634
0.288531
0.291392
0.294217
0.297005
0.299757
0.302471
0.305147
0.307786
0.310385
0.312946
0.315466
0.317944
0.320381
0.322775
0.325124
0.327427
0.329684
0.331893
0.33405
0.336162
0.338201
0.340252
0.342026
0.344467
0.344467
1.77951e-06
-1.77951e-06
1.46452e-05
7.0561e-05
0.000191297
0.000407207
0.000751293
0.00125576
0.0019487
0.0028519
0.00398018
0.00534174
0.00693923
0.00877085
0.0108314
0.0131134
0.0156072
0.0183022
0.0211871
0.0242496
0.0274776
0.0308589
0.0343811
0.0380325
0.0418013
0.0456763
0.0496469
0.0537026
0.0578339
0.0620314
0.0662865
0.0705911
0.0749374
0.0793184
0.0837275
0.0881584
0.0926054
0.0970633
0.101527
0.105993
0.110455
0.114912
0.119358
0.123791
0.128208
0.132607
0.136984
0.141338
0.145667
0.149969
0.154242
0.158486
0.162697
0.166877
0.171023
0.175134
0.179211
0.183251
0.187255
0.191223
0.195152
0.199044
0.202898
0.206714
0.210491
0.214229
0.217927
0.221587
0.225207
0.228788
0.232328
0.235828
0.239288
0.242707
0.246084
0.24942
0.252714
0.255964
0.259171
0.262334
0.265452
0.268523
0.271547
0.274523
0.27745
0.280325
0.283148
0.285918
0.288632
0.291289
0.293887
0.296425
0.298899
0.301309
0.303653
0.305926
0.308132
0.310249
0.312346
0.314169
0.316589
0.316589
1.29312e-07
-1.29312e-07
2.38864e-07
4.46745e-06
2.01123e-05
6.11026e-05
0.000148704
0.000310434
0.000577097
0.000979211
0.00154414
0.00229449
0.0032476
0.00441569
0.00580634
0.007423
0.00926564
0.0113312
0.0136141
0.0161068
0.0188002
0.0216839
0.0247468
0.027977
0.0313627
0.0348917
0.0385521
0.0423319
0.0462198
0.0502049
0.0542764
0.0584245
0.0626397
0.0669129
0.0712358
0.0756005
0.0799998
0.0844269
0.0888753
0.0933393
0.0978135
0.102293
0.106773
0.11125
0.115719
0.120177
0.124621
0.129049
0.133456
0.137842
0.142203
0.146539
0.150846
0.155124
0.159371
0.163586
0.167768
0.171915
0.176028
0.180104
0.184144
0.188146
0.192111
0.196036
0.199923
0.203771
0.207578
0.211345
0.215071
0.218755
0.222397
0.225996
0.229552
0.233063
0.236529
0.239949
0.243321
0.246645
0.249919
0.253143
0.256313
0.25943
0.262492
0.265495
0.26844
0.271323
0.274143
0.276898
0.279585
0.282202
0.284747
0.287217
0.28961
0.291923
0.294154
0.296299
0.298359
0.300318
0.302221
0.303892
0.305978
0.305978
1.29312e-07
-1.29312e-07
2.38864e-07
4.46745e-06
2.01123e-05
6.11026e-05
0.000148704
0.000310434
0.000577097
0.000979211
0.00154414
0.00229449
0.0032476
0.00441569
0.00580634
0.007423
0.00926564
0.0113312
0.0136141
0.0161068
0.0188002
0.0216839
0.0247468
0.027977
0.0313627
0.0348917
0.0385521
0.0423319
0.0462198
0.0502049
0.0542764
0.0584245
0.0626397
0.0669129
0.0712358
0.0756005
0.0799998
0.0844269
0.0888753
0.0933393
0.0978135
0.102293
0.106773
0.11125
0.115719
0.120177
0.124621
0.129049
0.133456
0.137842
0.142203
0.146539
0.150846
0.155124
0.159371
0.163586
0.167768
0.171915
0.176028
0.180104
0.184144
0.188146
0.192111
0.196036
0.199923
0.203771
0.207578
0.211345
0.215071
0.218755
0.222397
0.225996
0.229552
0.233063
0.236529
0.239949
0.243321
0.246645
0.249919
0.253143
0.256313
0.25943
0.262492
0.265495
0.26844
0.271323
0.274143
0.276898
0.279585
0.282202
0.284747
0.287217
0.28961
0.291923
0.294154
0.296299
0.298359
0.300318
0.302221
0.303892
0.305978
0.305978
