# vtk DataFile Version 2.0
FlowField
ASCII
DATASET STRUCTURED_GRID
DIMENSIONS 102 1 12 
POINTS 1224 double
0 0 0
0.3 0 0
0.6 0 0
0.9 0 0
1.2 0 0
1.5 0 0
1.8 0 0
2.1 0 0
2.4 0 0
2.7 0 0
3 0 0
3.3 0 0
3.6 0 0
3.9 0 0
4.2 0 0
4.5 0 0
4.8 0 0
5.1 0 0
5.4 0 0
5.7 0 0
6 0 0
6.3 0 0
6.6 0 0
6.9 0 0
7.2 0 0
7.5 0 0
7.8 0 0
8.1 0 0
8.4 0 0
8.7 0 0
9 0 0
9.3 0 0
9.6 0 0
9.9 0 0
10.2 0 0
10.5 0 0
10.8 0 0
11.1 0 0
11.4 0 0
11.7 0 0
12 0 0
12.3 0 0
12.6 0 0
12.9 0 0
13.2 0 0
13.5 0 0
13.8 0 0
14.1 0 0
14.4 0 0
14.7 0 0
15 0 0
15.3 0 0
15.6 0 0
15.9 0 0
16.2 0 0
16.5 0 0
16.8 0 0
17.1 0 0
17.4 0 0
17.7 0 0
18 0 0
18.3 0 0
18.6 0 0
18.9 0 0
19.2 0 0
19.5 0 0
19.8 0 0
20.1 0 0
20.4 0 0
20.7 0 0
21 0 0
21.3 0 0
21.6 0 0
21.9 0 0
22.2 0 0
22.5 0 0
22.8 0 0
23.1 0 0
23.4 0 0
23.7 0 0
24 0 0
24.3 0 0
24.6 0 0
24.9 0 0
25.2 0 0
25.5 0 0
25.8 0 0
26.1 0 0
26.4 0 0
26.7 0 0
27 0 0
27.3 0 0
27.6 0 0
27.9 0 0
28.2 0 0
28.5 0 0
28.8 0 0
29.1 0 0
29.4 0 0
29.7 0 0
30 0 0
30.3 0 0
0 0.1 0
0.3 0.1 0
0.6 0.1 0
0.9 0.1 0
1.2 0.1 0
1.5 0.1 0
1.8 0.1 0
2.1 0.1 0
2.4 0.1 0
2.7 0.1 0
3 0.1 0
3.3 0.1 0
3.6 0.1 0
3.9 0.1 0
4.2 0.1 0
4.5 0.1 0
4.8 0.1 0
5.1 0.1 0
5.4 0.1 0
5.7 0.1 0
6 0.1 0
6.3 0.1 0
6.6 0.1 0
6.9 0.1 0
7.2 0.1 0
7.5 0.1 0
7.8 0.1 0
8.1 0.1 0
8.4 0.1 0
8.7 0.1 0
9 0.1 0
9.3 0.1 0
9.6 0.1 0
9.9 0.1 0
10.2 0.1 0
10.5 0.1 0
10.8 0.1 0
11.1 0.1 0
11.4 0.1 0
11.7 0.1 0
12 0.1 0
12.3 0.1 0
12.6 0.1 0
12.9 0.1 0
13.2 0.1 0
13.5 0.1 0
13.8 0.1 0
14.1 0.1 0
14.4 0.1 0
14.7 0.1 0
15 0.1 0
15.3 0.1 0
15.6 0.1 0
15.9 0.1 0
16.2 0.1 0
16.5 0.1 0
16.8 0.1 0
17.1 0.1 0
17.4 0.1 0
17.7 0.1 0
18 0.1 0
18.3 0.1 0
18.6 0.1 0
18.9 0.1 0
19.2 0.1 0
19.5 0.1 0
19.8 0.1 0
20.1 0.1 0
20.4 0.1 0
20.7 0.1 0
21 0.1 0
21.3 0.1 0
21.6 0.1 0
21.9 0.1 0
22.2 0.1 0
22.5 0.1 0
22.8 0.1 0
23.1 0.1 0
23.4 0.1 0
23.7 0.1 0
24 0.1 0
24.3 0.1 0
24.6 0.1 0
24.9 0.1 0
25.2 0.1 0
25.5 0.1 0
25.8 0.1 0
26.1 0.1 0
26.4 0.1 0
26.7 0.1 0
27 0.1 0
27.3 0.1 0
27.6 0.1 0
27.9 0.1 0
28.2 0.1 0
28.5 0.1 0
28.8 0.1 0
29.1 0.1 0
29.4 0.1 0
29.7 0.1 0
30 0.1 0
30.3 0.1 0
0 0.2 0
0.3 0.2 0
0.6 0.2 0
0.9 0.2 0
1.2 0.2 0
1.5 0.2 0
1.8 0.2 0
2.1 0.2 0
2.4 0.2 0
2.7 0.2 0
3 0.2 0
3.3 0.2 0
3.6 0.2 0
3.9 0.2 0
4.2 0.2 0
4.5 0.2 0
4.8 0.2 0
5.1 0.2 0
5.4 0.2 0
5.7 0.2 0
6 0.2 0
6.3 0.2 0
6.6 0.2 0
6.9 0.2 0
7.2 0.2 0
7.5 0.2 0
7.8 0.2 0
8.1 0.2 0
8.4 0.2 0
8.7 0.2 0
9 0.2 0
9.3 0.2 0
9.6 0.2 0
9.9 0.2 0
10.2 0.2 0
10.5 0.2 0
10.8 0.2 0
11.1 0.2 0
11.4 0.2 0
11.7 0.2 0
12 0.2 0
12.3 0.2 0
12.6 0.2 0
12.9 0.2 0
13.2 0.2 0
13.5 0.2 0
13.8 0.2 0
14.1 0.2 0
14.4 0.2 0
14.7 0.2 0
15 0.2 0
15.3 0.2 0
15.6 0.2 0
15.9 0.2 0
16.2 0.2 0
16.5 0.2 0
16.8 0.2 0
17.1 0.2 0
17.4 0.2 0
17.7 0.2 0
18 0.2 0
18.3 0.2 0
18.6 0.2 0
18.9 0.2 0
19.2 0.2 0
19.5 0.2 0
19.8 0.2 0
20.1 0.2 0
20.4 0.2 0
20.7 0.2 0
21 0.2 0
21.3 0.2 0
21.6 0.2 0
21.9 0.2 0
22.2 0.2 0
22.5 0.2 0
22.8 0.2 0
23.1 0.2 0
23.4 0.2 0
23.7 0.2 0
24 0.2 0
24.3 0.2 0
24.6 0.2 0
24.9 0.2 0
25.2 0.2 0
25.5 0.2 0
25.8 0.2 0
26.1 0.2 0
26.4 0.2 0
26.7 0.2 0
27 0.2 0
27.3 0.2 0
27.6 0.2 0
27.9 0.2 0
28.2 0.2 0
28.5 0.2 0
28.8 0.2 0
29.1 0.2 0
29.4 0.2 0
29.7 0.2 0
30 0.2 0
30.3 0.2 0
0 0.3 0
0.3 0.3 0
0.6 0.3 0
0.9 0.3 0
1.2 0.3 0
1.5 0.3 0
1.8 0.3 0
2.1 0.3 0
2.4 0.3 0
2.7 0.3 0
3 0.3 0
3.3 0.3 0
3.6 0.3 0
3.9 0.3 0
4.2 0.3 0
4.5 0.3 0
4.8 0.3 0
5.1 0.3 0
5.4 0.3 0
5.7 0.3 0
6 0.3 0
6.3 0.3 0
6.6 0.3 0
6.9 0.3 0
7.2 0.3 0
7.5 0.3 0
7.8 0.3 0
8.1 0.3 0
8.4 0.3 0
8.7 0.3 0
9 0.3 0
9.3 0.3 0
9.6 0.3 0
9.9 0.3 0
10.2 0.3 0
10.5 0.3 0
10.8 0.3 0
11.1 0.3 0
11.4 0.3 0
11.7 0.3 0
12 0.3 0
12.3 0.3 0
12.6 0.3 0
12.9 0.3 0
13.2 0.3 0
13.5 0.3 0
13.8 0.3 0
14.1 0.3 0
14.4 0.3 0
14.7 0.3 0
15 0.3 0
15.3 0.3 0
15.6 0.3 0
15.9 0.3 0
16.2 0.3 0
16.5 0.3 0
16.8 0.3 0
17.1 0.3 0
17.4 0.3 0
17.7 0.3 0
18 0.3 0
18.3 0.3 0
18.6 0.3 0
18.9 0.3 0
19.2 0.3 0
19.5 0.3 0
19.8 0.3 0
20.1 0.3 0
20.4 0.3 0
20.7 0.3 0
21 0.3 0
21.3 0.3 0
21.6 0.3 0
21.9 0.3 0
22.2 0.3 0
22.5 0.3 0
22.8 0.3 0
23.1 0.3 0
23.4 0.3 0
23.7 0.3 0
24 0.3 0
24.3 0.3 0
24.6 0.3 0
24.9 0.3 0
25.2 0.3 0
25.5 0.3 0
25.8 0.3 0
26.1 0.3 0
26.4 0.3 0
26.7 0.3 0
27 0.3 0
27.3 0.3 0
27.6 0.3 0
27.9 0.3 0
28.2 0.3 0
28.5 0.3 0
28.8 0.3 0
29.1 0.3 0
29.4 0.3 0
29.7 0.3 0
30 0.3 0
30.3 0.3 0
0 0.4 0
0.3 0.4 0
0.6 0.4 0
0.9 0.4 0
1.2 0.4 0
1.5 0.4 0
1.8 0.4 0
2.1 0.4 0
2.4 0.4 0
2.7 0.4 0
3 0.4 0
3.3 0.4 0
3.6 0.4 0
3.9 0.4 0
4.2 0.4 0
4.5 0.4 0
4.8 0.4 0
5.1 0.4 0
5.4 0.4 0
5.7 0.4 0
6 0.4 0
6.3 0.4 0
6.6 0.4 0
6.9 0.4 0
7.2 0.4 0
7.5 0.4 0
7.8 0.4 0
8.1 0.4 0
8.4 0.4 0
8.7 0.4 0
9 0.4 0
9.3 0.4 0
9.6 0.4 0
9.9 0.4 0
10.2 0.4 0
10.5 0.4 0
10.8 0.4 0
11.1 0.4 0
11.4 0.4 0
11.7 0.4 0
12 0.4 0
12.3 0.4 0
12.6 0.4 0
12.9 0.4 0
13.2 0.4 0
13.5 0.4 0
13.8 0.4 0
14.1 0.4 0
14.4 0.4 0
14.7 0.4 0
15 0.4 0
15.3 0.4 0
15.6 0.4 0
15.9 0.4 0
16.2 0.4 0
16.5 0.4 0
16.8 0.4 0
17.1 0.4 0
17.4 0.4 0
17.7 0.4 0
18 0.4 0
18.3 0.4 0
18.6 0.4 0
18.9 0.4 0
19.2 0.4 0
19.5 0.4 0
19.8 0.4 0
20.1 0.4 0
20.4 0.4 0
20.7 0.4 0
21 0.4 0
21.3 0.4 0
21.6 0.4 0
21.9 0.4 0
22.2 0.4 0
22.5 0.4 0
22.8 0.4 0
23.1 0.4 0
23.4 0.4 0
23.7 0.4 0
24 0.4 0
24.3 0.4 0
24.6 0.4 0
24.9 0.4 0
25.2 0.4 0
25.5 0.4 0
25.8 0.4 0
26.1 0.4 0
26.4 0.4 0
26.7 0.4 0
27 0.4 0
27.3 0.4 0
27.6 0.4 0
27.9 0.4 0
28.2 0.4 0
28.5 0.4 0
28.8 0.4 0
29.1 0.4 0
29.4 0.4 0
29.7 0.4 0
30 0.4 0
30.3 0.4 0
0 0.5 0
0.3 0.5 0
0.6 0.5 0
0.9 0.5 0
1.2 0.5 0
1.5 0.5 0
1.8 0.5 0
2.1 0.5 0
2.4 0.5 0
2.7 0.5 0
3 0.5 0
3.3 0.5 0
3.6 0.5 0
3.9 0.5 0
4.2 0.5 0
4.5 0.5 0
4.8 0.5 0
5.1 0.5 0
5.4 0.5 0
5.7 0.5 0
6 0.5 0
6.3 0.5 0
6.6 0.5 0
6.9 0.5 0
7.2 0.5 0
7.5 0.5 0
7.8 0.5 0
8.1 0.5 0
8.4 0.5 0
8.7 0.5 0
9 0.5 0
9.3 0.5 0
9.6 0.5 0
9.9 0.5 0
10.2 0.5 0
10.5 0.5 0
10.8 0.5 0
11.1 0.5 0
11.4 0.5 0
11.7 0.5 0
12 0.5 0
12.3 0.5 0
12.6 0.5 0
12.9 0.5 0
13.2 0.5 0
13.5 0.5 0
13.8 0.5 0
14.1 0.5 0
14.4 0.5 0
14.7 0.5 0
15 0.5 0
15.3 0.5 0
15.6 0.5 0
15.9 0.5 0
16.2 0.5 0
16.5 0.5 0
16.8 0.5 0
17.1 0.5 0
17.4 0.5 0
17.7 0.5 0
18 0.5 0
18.3 0.5 0
18.6 0.5 0
18.9 0.5 0
19.2 0.5 0
19.5 0.5 0
19.8 0.5 0
20.1 0.5 0
20.4 0.5 0
20.7 0.5 0
21 0.5 0
21.3 0.5 0
21.6 0.5 0
21.9 0.5 0
22.2 0.5 0
22.5 0.5 0
22.8 0.5 0
23.1 0.5 0
23.4 0.5 0
23.7 0.5 0
24 0.5 0
24.3 0.5 0
24.6 0.5 0
24.9 0.5 0
25.2 0.5 0
25.5 0.5 0
25.8 0.5 0
26.1 0.5 0
26.4 0.5 0
26.7 0.5 0
27 0.5 0
27.3 0.5 0
27.6 0.5 0
27.9 0.5 0
28.2 0.5 0
28.5 0.5 0
28.8 0.5 0
29.1 0.5 0
29.4 0.5 0
29.7 0.5 0
30 0.5 0
30.3 0.5 0
0 0.6 0
0.3 0.6 0
0.6 0.6 0
0.9 0.6 0
1.2 0.6 0
1.5 0.6 0
1.8 0.6 0
2.1 0.6 0
2.4 0.6 0
2.7 0.6 0
3 0.6 0
3.3 0.6 0
3.6 0.6 0
3.9 0.6 0
4.2 0.6 0
4.5 0.6 0
4.8 0.6 0
5.1 0.6 0
5.4 0.6 0
5.7 0.6 0
6 0.6 0
6.3 0.6 0
6.6 0.6 0
6.9 0.6 0
7.2 0.6 0
7.5 0.6 0
7.8 0.6 0
8.1 0.6 0
8.4 0.6 0
8.7 0.6 0
9 0.6 0
9.3 0.6 0
9.6 0.6 0
9.9 0.6 0
10.2 0.6 0
10.5 0.6 0
10.8 0.6 0
11.1 0.6 0
11.4 0.6 0
11.7 0.6 0
12 0.6 0
12.3 0.6 0
12.6 0.6 0
12.9 0.6 0
13.2 0.6 0
13.5 0.6 0
13.8 0.6 0
14.1 0.6 0
14.4 0.6 0
14.7 0.6 0
15 0.6 0
15.3 0.6 0
15.6 0.6 0
15.9 0.6 0
16.2 0.6 0
16.5 0.6 0
16.8 0.6 0
17.1 0.6 0
17.4 0.6 0
17.7 0.6 0
18 0.6 0
18.3 0.6 0
18.6 0.6 0
18.9 0.6 0
19.2 0.6 0
19.5 0.6 0
19.8 0.6 0
20.1 0.6 0
20.4 0.6 0
20.7 0.6 0
21 0.6 0
21.3 0.6 0
21.6 0.6 0
21.9 0.6 0
22.2 0.6 0
22.5 0.6 0
22.8 0.6 0
23.1 0.6 0
23.4 0.6 0
23.7 0.6 0
24 0.6 0
24.3 0.6 0
24.6 0.6 0
24.9 0.6 0
25.2 0.6 0
25.5 0.6 0
25.8 0.6 0
26.1 0.6 0
26.4 0.6 0
26.7 0.6 0
27 0.6 0
27.3 0.6 0
27.6 0.6 0
27.9 0.6 0
28.2 0.6 0
28.5 0.6 0
28.8 0.6 0
29.1 0.6 0
29.4 0.6 0
29.7 0.6 0
30 0.6 0
30.3 0.6 0
0 0.7 0
0.3 0.7 0
0.6 0.7 0
0.9 0.7 0
1.2 0.7 0
1.5 0.7 0
1.8 0.7 0
2.1 0.7 0
2.4 0.7 0
2.7 0.7 0
3 0.7 0
3.3 0.7 0
3.6 0.7 0
3.9 0.7 0
4.2 0.7 0
4.5 0.7 0
4.8 0.7 0
5.1 0.7 0
5.4 0.7 0
5.7 0.7 0
6 0.7 0
6.3 0.7 0
6.6 0.7 0
6.9 0.7 0
7.2 0.7 0
7.5 0.7 0
7.8 0.7 0
8.1 0.7 0
8.4 0.7 0
8.7 0.7 0
9 0.7 0
9.3 0.7 0
9.6 0.7 0
9.9 0.7 0
10.2 0.7 0
10.5 0.7 0
10.8 0.7 0
11.1 0.7 0
11.4 0.7 0
11.7 0.7 0
12 0.7 0
12.3 0.7 0
12.6 0.7 0
12.9 0.7 0
13.2 0.7 0
13.5 0.7 0
13.8 0.7 0
14.1 0.7 0
14.4 0.7 0
14.7 0.7 0
15 0.7 0
15.3 0.7 0
15.6 0.7 0
15.9 0.7 0
16.2 0.7 0
16.5 0.7 0
16.8 0.7 0
17.1 0.7 0
17.4 0.7 0
17.7 0.7 0
18 0.7 0
18.3 0.7 0
18.6 0.7 0
18.9 0.7 0
19.2 0.7 0
19.5 0.7 0
19.8 0.7 0
20.1 0.7 0
20.4 0.7 0
20.7 0.7 0
21 0.7 0
21.3 0.7 0
21.6 0.7 0
21.9 0.7 0
22.2 0.7 0
22.5 0.7 0
22.8 0.7 0
23.1 0.7 0
23.4 0.7 0
23.7 0.7 0
24 0.7 0
24.3 0.7 0
24.6 0.7 0
24.9 0.7 0
25.2 0.7 0
25.5 0.7 0
25.8 0.7 0
26.1 0.7 0
26.4 0.7 0
26.7 0.7 0
27 0.7 0
27.3 0.7 0
27.6 0.7 0
27.9 0.7 0
28.2 0.7 0
28.5 0.7 0
28.8 0.7 0
29.1 0.7 0
29.4 0.7 0
29.7 0.7 0
30 0.7 0
30.3 0.7 0
0 0.8 0
0.3 0.8 0
0.6 0.8 0
0.9 0.8 0
1.2 0.8 0
1.5 0.8 0
1.8 0.8 0
2.1 0.8 0
2.4 0.8 0
2.7 0.8 0
3 0.8 0
3.3 0.8 0
3.6 0.8 0
3.9 0.8 0
4.2 0.8 0
4.5 0.8 0
4.8 0.8 0
5.1 0.8 0
5.4 0.8 0
5.7 0.8 0
6 0.8 0
6.3 0.8 0
6.6 0.8 0
6.9 0.8 0
7.2 0.8 0
7.5 0.8 0
7.8 0.8 0
8.1 0.8 0
8.4 0.8 0
8.7 0.8 0
9 0.8 0
9.3 0.8 0
9.6 0.8 0
9.9 0.8 0
10.2 0.8 0
10.5 0.8 0
10.8 0.8 0
11.1 0.8 0
11.4 0.8 0
11.7 0.8 0
12 0.8 0
12.3 0.8 0
12.6 0.8 0
12.9 0.8 0
13.2 0.8 0
13.5 0.8 0
13.8 0.8 0
14.1 0.8 0
14.4 0.8 0
14.7 0.8 0
15 0.8 0
15.3 0.8 0
15.6 0.8 0
15.9 0.8 0
16.2 0.8 0
16.5 0.8 0
16.8 0.8 0
17.1 0.8 0
17.4 0.8 0
17.7 0.8 0
18 0.8 0
18.3 0.8 0
18.6 0.8 0
18.9 0.8 0
19.2 0.8 0
19.5 0.8 0
19.8 0.8 0
20.1 0.8 0
20.4 0.8 0
20.7 0.8 0
21 0.8 0
21.3 0.8 0
21.6 0.8 0
21.9 0.8 0
22.2 0.8 0
22.5 0.8 0
22.8 0.8 0
23.1 0.8 0
23.4 0.8 0
23.7 0.8 0
24 0.8 0
24.3 0.8 0
24.6 0.8 0
24.9 0.8 0
25.2 0.8 0
25.5 0.8 0
25.8 0.8 0
26.1 0.8 0
26.4 0.8 0
26.7 0.8 0
27 0.8 0
27.3 0.8 0
27.6 0.8 0
27.9 0.8 0
28.2 0.8 0
28.5 0.8 0
28.8 0.8 0
29.1 0.8 0
29.4 0.8 0
29.7 0.8 0
30 0.8 0
30.3 0.8 0
0 0.9 0
0.3 0.9 0
0.6 0.9 0
0.9 0.9 0
1.2 0.9 0
1.5 0.9 0
1.8 0.9 0
2.1 0.9 0
2.4 0.9 0
2.7 0.9 0
3 0.9 0
3.3 0.9 0
3.6 0.9 0
3.9 0.9 0
4.2 0.9 0
4.5 0.9 0
4.8 0.9 0
5.1 0.9 0
5.4 0.9 0
5.7 0.9 0
6 0.9 0
6.3 0.9 0
6.6 0.9 0
6.9 0.9 0
7.2 0.9 0
7.5 0.9 0
7.8 0.9 0
8.1 0.9 0
8.4 0.9 0
8.7 0.9 0
9 0.9 0
9.3 0.9 0
9.6 0.9 0
9.9 0.9 0
10.2 0.9 0
10.5 0.9 0
10.8 0.9 0
11.1 0.9 0
11.4 0.9 0
11.7 0.9 0
12 0.9 0
12.3 0.9 0
12.6 0.9 0
12.9 0.9 0
13.2 0.9 0
13.5 0.9 0
13.8 0.9 0
14.1 0.9 0
14.4 0.9 0
14.7 0.9 0
15 0.9 0
15.3 0.9 0
15.6 0.9 0
15.9 0.9 0
16.2 0.9 0
16.5 0.9 0
16.8 0.9 0
17.1 0.9 0
17.4 0.9 0
17.7 0.9 0
18 0.9 0
18.3 0.9 0
18.6 0.9 0
18.9 0.9 0
19.2 0.9 0
19.5 0.9 0
19.8 0.9 0
20.1 0.9 0
20.4 0.9 0
20.7 0.9 0
21 0.9 0
21.3 0.9 0
21.6 0.9 0
21.9 0.9 0
22.2 0.9 0
22.5 0.9 0
22.8 0.9 0
23.1 0.9 0
23.4 0.9 0
23.7 0.9 0
24 0.9 0
24.3 0.9 0
24.6 0.9 0
24.9 0.9 0
25.2 0.9 0
25.5 0.9 0
25.8 0.9 0
26.1 0.9 0
26.4 0.9 0
26.7 0.9 0
27 0.9 0
27.3 0.9 0
27.6 0.9 0
27.9 0.9 0
28.2 0.9 0
28.5 0.9 0
28.8 0.9 0
29.1 0.9 0
29.4 0.9 0
29.7 0.9 0
30 0.9 0
30.3 0.9 0
0 1 0
0.3 1 0
0.6 1 0
0.9 1 0
1.2 1 0
1.5 1 0
1.8 1 0
2.1 1 0
2.4 1 0
2.7 1 0
3 1 0
3.3 1 0
3.6 1 0
3.9 1 0
4.2 1 0
4.5 1 0
4.8 1 0
5.1 1 0
5.4 1 0
5.7 1 0
6 1 0
6.3 1 0
6.6 1 0
6.9 1 0
7.2 1 0
7.5 1 0
7.8 1 0
8.1 1 0
8.4 1 0
8.7 1 0
9 1 0
9.3 1 0
9.6 1 0
9.9 1 0
10.2 1 0
10.5 1 0
10.8 1 0
11.1 1 0
11.4 1 0
11.7 1 0
12 1 0
12.3 1 0
12.6 1 0
12.9 1 0
13.2 1 0
13.5 1 0
13.8 1 0
14.1 1 0
14.4 1 0
14.7 1 0
15 1 0
15.3 1 0
15.6 1 0
15.9 1 0
16.2 1 0
16.5 1 0
16.8 1 0
17.1 1 0
17.4 1 0
17.7 1 0
18 1 0
18.3 1 0
18.6 1 0
18.9 1 0
19.2 1 0
19.5 1 0
19.8 1 0
20.1 1 0
20.4 1 0
20.7 1 0
21 1 0
21.3 1 0
21.6 1 0
21.9 1 0
22.2 1 0
22.5 1 0
22.8 1 0
23.1 1 0
23.4 1 0
23.7 1 0
24 1 0
24.3 1 0
24.6 1 0
24.9 1 0
25.2 1 0
25.5 1 0
25.8 1 0
26.1 1 0
26.4 1 0
26.7 1 0
27 1 0
27.3 1 0
27.6 1 0
27.9 1 0
28.2 1 0
28.5 1 0
28.8 1 0
29.1 1 0
29.4 1 0
29.7 1 0
30 1 0
30.3 1 0
0 1.1 0
0.3 1.1 0
0.6 1.1 0
0.9 1.1 0
1.2 1.1 0
1.5 1.1 0
1.8 1.1 0
2.1 1.1 0
2.4 1.1 0
2.7 1.1 0
3 1.1 0
3.3 1.1 0
3.6 1.1 0
3.9 1.1 0
4.2 1.1 0
4.5 1.1 0
4.8 1.1 0
5.1 1.1 0
5.4 1.1 0
5.7 1.1 0
6 1.1 0
6.3 1.1 0
6.6 1.1 0
6.9 1.1 0
7.2 1.1 0
7.5 1.1 0
7.8 1.1 0
8.1 1.1 0
8.4 1.1 0
8.7 1.1 0
9 1.1 0
9.3 1.1 0
9.6 1.1 0
9.9 1.1 0
10.2 1.1 0
10.5 1.1 0
10.8 1.1 0
11.1 1.1 0
11.4 1.1 0
11.7 1.1 0
12 1.1 0
12.3 1.1 0
12.6 1.1 0
12.9 1.1 0
13.2 1.1 0
13.5 1.1 0
13.8 1.1 0
14.1 1.1 0
14.4 1.1 0
14.7 1.1 0
15 1.1 0
15.3 1.1 0
15.6 1.1 0
15.9 1.1 0
16.2 1.1 0
16.5 1.1 0
16.8 1.1 0
17.1 1.1 0
17.4 1.1 0
17.7 1.1 0
18 1.1 0
18.3 1.1 0
18.6 1.1 0
18.9 1.1 0
19.2 1.1 0
19.5 1.1 0
19.8 1.1 0
20.1 1.1 0
20.4 1.1 0
20.7 1.1 0
21 1.1 0
21.3 1.1 0
21.6 1.1 0
21.9 1.1 0
22.2 1.1 0
22.5 1.1 0
22.8 1.1 0
23.1 1.1 0
23.4 1.1 0
23.7 1.1 0
24 1.1 0
24.3 1.1 0
24.6 1.1 0
24.9 1.1 0
25.2 1.1 0
25.5 1.1 0
25.8 1.1 0
26.1 1.1 0
26.4 1.1 0
26.7 1.1 0
27 1.1 0
27.3 1.1 0
27.6 1.1 0
27.9 1.1 0
28.2 1.1 0
28.5 1.1 0
28.8 1.1 0
29.1 1.1 0
29.4 1.1 0
29.7 1.1 0
30 1.1 0
30.3 1.1 0

POINT_DATA 1224

SCALARS phi double
LOOKUP_TABLE default
0.999997
1
0.999986
0.999856
0.999429
0.99847
0.99678
0.994238
0.990799
0.986475
0.981316
0.975395
0.968799
0.961621
0.953954
0.945885
0.937499
0.928869
0.920063
0.911138
0.902148
0.893134
0.884134
0.87518
0.866298
0.857509
0.848833
0.840282
0.831869
0.823603
0.81549
0.807537
0.799747
0.792122
0.784663
0.77737
0.770243
0.763279
0.756475
0.749827
0.74333
0.736977
0.730759
0.724667
0.71869
0.712815
0.70703
0.701317
0.695662
0.690046
0.684453
0.678863
0.673258
0.66762
0.66193
0.656172
0.650329
0.644385
0.638327
0.632142
0.625819
0.619349
0.612723
0.605936
0.598983
0.591861
0.584569
0.577107
0.569476
0.561678
0.553717
0.545596
0.537321
0.528898
0.520332
0.511629
0.502797
0.493842
0.484771
0.475592
0.466311
0.456935
0.447472
0.437928
0.42831
0.418624
0.408878
0.399077
0.38923
0.379341
0.369419
0.35947
0.349501
0.339519
0.329531
0.31955
0.309564
0.29965
0.289566
0.280253
0.268114
0.268114
0.999997
1
0.999986
0.999856
0.999429
0.99847
0.99678
0.994238
0.990799
0.986475
0.981316
0.975395
0.968799
0.961621
0.953954
0.945885
0.937499
0.928869
0.920063
0.911138
0.902148
0.893134
0.884134
0.87518
0.866298
0.857509
0.848833
0.840282
0.831869
0.823603
0.81549
0.807537
0.799747
0.792122
0.784663
0.77737
0.770243
0.763279
0.756475
0.749827
0.74333
0.736977
0.730759
0.724667
0.71869
0.712815
0.70703
0.701317
0.695662
0.690046
0.684453
0.678863
0.673258
0.66762
0.66193
0.656172
0.650329
0.644385
0.638327
0.632142
0.625819
0.619349
0.612723
0.605936
0.598983
0.591861
0.584569
0.577107
0.569476
0.561678
0.553717
0.545596
0.537321
0.528898
0.520332
0.511629
0.502797
0.493842
0.484771
0.475592
0.466311
0.456935
0.447472
0.437928
0.42831
0.418624
0.408878
0.399077
0.38923
0.379341
0.369419
0.35947
0.349501
0.339519
0.329531
0.31955
0.309564
0.29965
0.289566
0.280253
0.268114
0.268114
0.999991
1.00001
0.999806
0.999198
0.997961
0.995905
0.992926
0.989008
0.984195
0.978566
0.972214
0.965241
0.957742
0.949813
0.941537
0.932993
0.924249
0.915368
0.906401
0.897394
0.888388
0.879414
0.870502
0.861673
0.852949
0.844343
0.83587
0.827539
0.819358
0.811334
0.80347
0.79577
0.788236
0.780868
0.773667
0.766631
0.75976
0.753052
0.746503
0.740111
0.73387
0.727776
0.721823
0.716004
0.71031
0.704733
0.699262
0.693885
0.688591
0.683365
0.678194
0.673061
0.667952
0.66285
0.657739
0.652603
0.647427
0.642194
0.636891
0.631503
0.626018
0.620424
0.61471
0.608869
0.602891
0.59677
0.590501
0.584081
0.577505
0.570774
0.563886
0.556843
0.549644
0.542293
0.534793
0.527146
0.519357
0.51143
0.503369
0.49518
0.486867
0.478436
0.469892
0.461239
0.452484
0.443632
0.434688
0.425657
0.416546
0.407358
0.398101
0.388779
0.379398
0.369966
0.360485
0.35097
0.341401
0.33188
0.322078
0.313205
0.300932
0.300932
1.00019
0.999812
0.997464
0.993419
0.987789
0.980769
0.972643
0.963715
0.954249
0.944452
0.934478
0.924439
0.914415
0.904462
0.89462
0.884916
0.875371
0.865997
0.856805
0.847798
0.838982
0.830357
0.821925
0.813684
0.805635
0.797774
0.790101
0.782613
0.775306
0.768179
0.761227
0.754449
0.74784
0.741397
0.735116
0.728995
0.723029
0.717216
0.71155
0.706029
0.700647
0.695402
0.690288
0.685299
0.680432
0.675678
0.671032
0.666486
0.662033
0.657662
0.653364
0.649129
0.644946
0.640803
0.636689
0.63259
0.628495
0.624389
0.620261
0.616098
0.611887
0.607617
0.603276
0.598854
0.59434
0.589725
0.585001
0.58016
0.575196
0.570103
0.564875
0.55951
0.554003
0.548353
0.542556
0.536613
0.530523
0.524286
0.517901
0.511371
0.504696
0.497877
0.490918
0.483819
0.476582
0.469211
0.461708
0.454076
0.446317
0.438434
0.430431
0.422312
0.414079
0.405737
0.397289
0.388747
0.380083
0.371418
0.362362
0.354264
0.342591
0.342591
1.00542
0.994581
0.97508
0.954125
0.933452
0.913655
0.895039
0.877742
0.861776
0.84707
0.833512
0.820982
0.809362
0.798543
0.78843
0.77894
0.770002
0.761554
0.753544
0.745926
0.738662
0.731717
0.725064
0.718677
0.712536
0.706621
0.700915
0.695406
0.690081
0.684928
0.679937
0.675101
0.670411
0.665861
0.661444
0.657154
0.652987
0.648937
0.645
0.641172
0.637449
0.633826
0.630301
0.626869
0.623526
0.620269
0.617094
0.613995
0.610968
0.608009
0.605111
0.602269
0.599475
0.596724
0.594007
0.591317
0.588645
0.585982
0.58332
0.580649
0.57796
0.575244
0.57249
0.569689
0.566831
0.563908
0.560911
0.55783
0.554658
0.551387
0.548008
0.544516
0.540903
0.537164
0.533292
0.529284
0.525133
0.520836
0.516389
0.511789
0.507032
0.502115
0.497037
0.491795
0.486388
0.480813
0.475071
0.46916
0.46308
0.45683
0.450411
0.443823
0.437067
0.430146
0.423056
0.415813
0.40838
0.400885
0.392925
0.38583
0.375293
0.375293
1.08202
0.91798
0.823015
0.765284
0.727175
0.700189
0.68008
0.66452
0.652111
0.641956
0.633457
0.626199
0.619896
0.614339
0.609379
0.604903
0.600826
0.597084
0.593624
0.590405
0.587396
0.584568
0.581901
0.579375
0.576975
0.574688
0.572504
0.570412
0.568405
0.566476
0.564618
0.562828
0.561099
0.559429
0.557813
0.556249
0.554734
0.553264
0.551839
0.550456
0.549113
0.547808
0.54654
0.545307
0.544107
0.54294
0.541802
0.540694
0.539611
0.538553
0.537518
0.536502
0.535502
0.534516
0.533541
0.532571
0.531603
0.530632
0.529652
0.528659
0.527647
0.526608
0.525537
0.524427
0.523271
0.52206
0.520789
0.519448
0.51803
0.516528
0.514932
0.513236
0.511432
0.509511
0.507465
0.505288
0.502972
0.500509
0.497893
0.495116
0.492172
0.489055
0.485759
0.482278
0.478606
0.47474
0.470673
0.466403
0.461925
0.457236
0.452334
0.447216
0.441881
0.436328
0.430554
0.42457
0.418341
0.411988
0.405126
0.398997
0.389659
0.389659
-0.0820204
0.0820204
0.176985
0.234716
0.272825
0.299811
0.31992
0.33548
0.347889
0.358044
0.366543
0.373801
0.380104
0.385661
0.390621
0.395097
0.399174
0.402916
0.406376
0.409595
0.412604
0.415432
0.418099
0.420625
0.423025
0.425312
0.427496
0.429588
0.431595
0.433524
0.435382
0.437172
0.438901
0.440571
0.442187
0.443751
0.445266
0.446736
0.448161
0.449544
0.450887
0.452191
0.453458
0.454689
0.455886
0.457049
0.45818
0.459279
0.460347
0.461385
0.462392
0.463369
0.464315
0.465231
0.466115
0.466966
0.467783
0.468564
0.469307
0.470009
0.470666
0.471277
0.471835
0.472338
0.472779
0.473153
0.473454
0.473676
0.473812
0.473854
0.473795
0.473626
0.47334
0.472927
0.47238
0.471688
0.470844
0.469837
0.468659
0.467301
0.465753
0.464008
0.462057
0.459892
0.457505
0.454889
0.452037
0.448944
0.445605
0.442013
0.438166
0.434059
0.429691
0.425061
0.420164
0.415012
0.40957
0.403955
0.397803
0.392282
0.383716
0.383716
-0.00541873
0.00541873
0.0249201
0.0458753
0.0665479
0.0863449
0.104961
0.122258
0.138224
0.15293
0.166488
0.179018
0.190638
0.201457
0.21157
0.22106
0.229998
0.238446
0.246456
0.254074
0.261338
0.268283
0.274936
0.281323
0.287464
0.293379
0.299085
0.304594
0.309919
0.315072
0.320063
0.324899
0.329589
0.334139
0.338556
0.342846
0.347013
0.351063
0.354999
0.358827
0.362549
0.36617
0.369692
0.373118
0.376453
0.379698
0.382855
0.385928
0.388919
0.391829
0.39466
0.397414
0.400093
0.402697
0.405227
0.407683
0.410065
0.412374
0.414607
0.416764
0.418843
0.420841
0.422755
0.42458
0.426314
0.427949
0.429482
0.430905
0.432211
0.433393
0.434443
0.435351
0.436109
0.436708
0.437137
0.437386
0.437445
0.437304
0.436952
0.436381
0.435579
0.434537
0.433246
0.431698
0.429885
0.4278
0.425435
0.422786
0.419847
0.416615
0.413088
0.409262
0.405138
0.400717
0.395997
0.390992
0.38567
0.380147
0.374076
0.368596
0.360094
0.360094
-0.000187534
0.000187534
0.00253635
0.00658088
0.0122109
0.0192313
0.0273566
0.0362847
0.0457513
0.0555485
0.0655222
0.075561
0.0855851
0.0955382
0.10538
0.115084
0.124629
0.134003
0.143195
0.152202
0.161018
0.169643
0.178075
0.186316
0.194365
0.202226
0.209899
0.217387
0.224694
0.231821
0.238773
0.245551
0.25216
0.258603
0.264884
0.271005
0.27697
0.282783
0.288447
0.293966
0.299343
0.304581
0.309684
0.314654
0.319496
0.324212
0.328805
0.333277
0.337632
0.341872
0.345998
0.350013
0.353919
0.357717
0.361406
0.364989
0.368464
0.371832
0.375089
0.378235
0.381267
0.384182
0.386974
0.38964
0.392173
0.394567
0.396815
0.398909
0.400839
0.402598
0.404174
0.405558
0.40674
0.407709
0.408453
0.408961
0.409224
0.40923
0.408969
0.408432
0.407608
0.406491
0.405071
0.403343
0.4013
0.398938
0.396253
0.393244
0.389908
0.386246
0.382259
0.37795
0.373324
0.368385
0.363138
0.357599
0.351747
0.345694
0.339114
0.333134
0.324079
0.324079
9.11926e-06
-9.11926e-06
0.000194127
0.000801507
0.00203892
0.00409543
0.00707416
0.010992
0.015805
0.0214344
0.0277857
0.0347594
0.0422575
0.0501873
0.0584631
0.0670073
0.0757507
0.0846324
0.0935993
0.102606
0.111612
0.120586
0.129498
0.138327
0.147051
0.155657
0.16413
0.172461
0.180642
0.188666
0.19653
0.20423
0.211764
0.219132
0.226333
0.233368
0.240237
0.246943
0.253486
0.259871
0.266098
0.27217
0.27809
0.283861
0.289486
0.294967
0.300306
0.305507
0.310571
0.315501
0.320298
0.324963
0.329498
0.333902
0.338175
0.342316
0.346324
0.350196
0.353929
0.357518
0.360959
0.364247
0.367373
0.370331
0.373113
0.375708
0.378108
0.380302
0.38228
0.384029
0.385538
0.386795
0.38779
0.38851
0.388944
0.389081
0.388911
0.388424
0.387613
0.386468
0.384985
0.383156
0.380979
0.378451
0.375569
0.372335
0.36875
0.364817
0.36054
0.355925
0.350981
0.345715
0.340138
0.334262
0.328097
0.321664
0.314954
0.308065
0.300726
0.293967
0.284216
0.284216
2.58893e-06
-2.58893e-06
1.40367e-05
0.000143873
0.000571454
0.00153022
0.00322002
0.00576194
0.00920072
0.0135245
0.0186837
0.0246047
0.0312006
0.0383787
0.0460463
0.0541147
0.0625013
0.0711311
0.0799374
0.0888615
0.0978524
0.106866
0.115866
0.12482
0.133702
0.142491
0.151167
0.159718
0.168131
0.176397
0.18451
0.192463
0.200253
0.207878
0.215336
0.222626
0.22975
0.236707
0.2435
0.250129
0.256596
0.262905
0.269057
0.275054
0.2809
0.286596
0.292145
0.297549
0.302808
0.307926
0.312901
0.317735
0.322427
0.326977
0.331381
0.335639
0.339745
0.343696
0.347487
0.35111
0.354559
0.357825
0.3609
0.363773
0.366434
0.368871
0.371073
0.373027
0.374721
0.376143
0.377279
0.378119
0.378649
0.37886
0.378739
0.378278
0.377468
0.376302
0.374773
0.372877
0.37061
0.36797
0.364958
0.361574
0.357822
0.353707
0.349235
0.344413
0.339252
0.333762
0.327955
0.321845
0.315447
0.308778
0.301852
0.294694
0.287304
0.279762
0.27187
0.264454
0.25446
0.25446
2.58893e-06
-2.58893e-06
1.40367e-05
0.000143873
0.000571454
0.00153022
0.00322002
0.00576194
0.00920072
0.0135245
0.0186837
0.0246047
0.0312006
0.0383787
0.0460463
0.0541147
0.0625013
0.0711311
0.0799374
0.0888615
0.0978524
0.106866
0.115866
0.12482
0.133702
0.142491
0.151167
0.159718
0.168131
0.176397
0.18451
0.192463
0.200253
0.207878
0.215336
0.222626
0.22975
0.236707
0.2435
0.250129
0.256596
0.262905
0.269057
0.275054
0.2809
0.286596
0.292145
0.297549
0.302808
0.307926
0.312901
0.317735
0.322427
0.326977
0.331381
0.335639
0.339745
0.343696
0.347487
0.35111
0.354559
0.357825
0.3609
0.363773
0.366434
0.368871
0.371073
0.373027
0.374721
0.376143
0.377279
0.378119
0.378649
0.37886
0.378739
0.378278
0.377468
0.376302
0.374773
0.372877
0.37061
0.36797
0.364958
0.361574
0.357822
0.353707
0.349235
0.344413
0.339252
0.333762
0.327955
0.321845
0.315447
0.308778
0.301852
0.294694
0.287304
0.279762
0.27187
0.264454
0.25446
0.25446
