# vtk DataFile Version 2.0
FlowField
ASCII
DATASET STRUCTURED_GRID
DIMENSIONS 101 11 1 
POINTS 1111 double
0 0 0
0.3 0 0
0.6 0 0
0.9 0 0
1.2 0 0
1.5 0 0
1.8 0 0
2.1 0 0
2.4 0 0
2.7 0 0
3 0 0
3.3 0 0
3.6 0 0
3.9 0 0
4.2 0 0
4.5 0 0
4.8 0 0
5.1 0 0
5.4 0 0
5.7 0 0
6 0 0
6.3 0 0
6.6 0 0
6.9 0 0
7.2 0 0
7.5 0 0
7.8 0 0
8.1 0 0
8.4 0 0
8.7 0 0
9 0 0
9.3 0 0
9.6 0 0
9.9 0 0
10.2 0 0
10.5 0 0
10.8 0 0
11.1 0 0
11.4 0 0
11.7 0 0
12 0 0
12.3 0 0
12.6 0 0
12.9 0 0
13.2 0 0
13.5 0 0
13.8 0 0
14.1 0 0
14.4 0 0
14.7 0 0
15 0 0
15.3 0 0
15.6 0 0
15.9 0 0
16.2 0 0
16.5 0 0
16.8 0 0
17.1 0 0
17.4 0 0
17.7 0 0
18 0 0
18.3 0 0
18.6 0 0
18.9 0 0
19.2 0 0
19.5 0 0
19.8 0 0
20.1 0 0
20.4 0 0
20.7 0 0
21 0 0
21.3 0 0
21.6 0 0
21.9 0 0
22.2 0 0
22.5 0 0
22.8 0 0
23.1 0 0
23.4 0 0
23.7 0 0
24 0 0
24.3 0 0
24.6 0 0
24.9 0 0
25.2 0 0
25.5 0 0
25.8 0 0
26.1 0 0
26.4 0 0
26.7 0 0
27 0 0
27.3 0 0
27.6 0 0
27.9 0 0
28.2 0 0
28.5 0 0
28.8 0 0
29.1 0 0
29.4 0 0
29.7 0 0
30 0 0
0 0.1 0
0.3 0.1 0
0.6 0.1 0
0.9 0.1 0
1.2 0.1 0
1.5 0.1 0
1.8 0.1 0
2.1 0.1 0
2.4 0.1 0
2.7 0.1 0
3 0.1 0
3.3 0.1 0
3.6 0.1 0
3.9 0.1 0
4.2 0.1 0
4.5 0.1 0
4.8 0.1 0
5.1 0.1 0
5.4 0.1 0
5.7 0.1 0
6 0.1 0
6.3 0.1 0
6.6 0.1 0
6.9 0.1 0
7.2 0.1 0
7.5 0.1 0
7.8 0.1 0
8.1 0.1 0
8.4 0.1 0
8.7 0.1 0
9 0.1 0
9.3 0.1 0
9.6 0.1 0
9.9 0.1 0
10.2 0.1 0
10.5 0.1 0
10.8 0.1 0
11.1 0.1 0
11.4 0.1 0
11.7 0.1 0
12 0.1 0
12.3 0.1 0
12.6 0.1 0
12.9 0.1 0
13.2 0.1 0
13.5 0.1 0
13.8 0.1 0
14.1 0.1 0
14.4 0.1 0
14.7 0.1 0
15 0.1 0
15.3 0.1 0
15.6 0.1 0
15.9 0.1 0
16.2 0.1 0
16.5 0.1 0
16.8 0.1 0
17.1 0.1 0
17.4 0.1 0
17.7 0.1 0
18 0.1 0
18.3 0.1 0
18.6 0.1 0
18.9 0.1 0
19.2 0.1 0
19.5 0.1 0
19.8 0.1 0
20.1 0.1 0
20.4 0.1 0
20.7 0.1 0
21 0.1 0
21.3 0.1 0
21.6 0.1 0
21.9 0.1 0
22.2 0.1 0
22.5 0.1 0
22.8 0.1 0
23.1 0.1 0
23.4 0.1 0
23.7 0.1 0
24 0.1 0
24.3 0.1 0
24.6 0.1 0
24.9 0.1 0
25.2 0.1 0
25.5 0.1 0
25.8 0.1 0
26.1 0.1 0
26.4 0.1 0
26.7 0.1 0
27 0.1 0
27.3 0.1 0
27.6 0.1 0
27.9 0.1 0
28.2 0.1 0
28.5 0.1 0
28.8 0.1 0
29.1 0.1 0
29.4 0.1 0
29.7 0.1 0
30 0.1 0
0 0.2 0
0.3 0.2 0
0.6 0.2 0
0.9 0.2 0
1.2 0.2 0
1.5 0.2 0
1.8 0.2 0
2.1 0.2 0
2.4 0.2 0
2.7 0.2 0
3 0.2 0
3.3 0.2 0
3.6 0.2 0
3.9 0.2 0
4.2 0.2 0
4.5 0.2 0
4.8 0.2 0
5.1 0.2 0
5.4 0.2 0
5.7 0.2 0
6 0.2 0
6.3 0.2 0
6.6 0.2 0
6.9 0.2 0
7.2 0.2 0
7.5 0.2 0
7.8 0.2 0
8.1 0.2 0
8.4 0.2 0
8.7 0.2 0
9 0.2 0
9.3 0.2 0
9.6 0.2 0
9.9 0.2 0
10.2 0.2 0
10.5 0.2 0
10.8 0.2 0
11.1 0.2 0
11.4 0.2 0
11.7 0.2 0
12 0.2 0
12.3 0.2 0
12.6 0.2 0
12.9 0.2 0
13.2 0.2 0
13.5 0.2 0
13.8 0.2 0
14.1 0.2 0
14.4 0.2 0
14.7 0.2 0
15 0.2 0
15.3 0.2 0
15.6 0.2 0
15.9 0.2 0
16.2 0.2 0
16.5 0.2 0
16.8 0.2 0
17.1 0.2 0
17.4 0.2 0
17.7 0.2 0
18 0.2 0
18.3 0.2 0
18.6 0.2 0
18.9 0.2 0
19.2 0.2 0
19.5 0.2 0
19.8 0.2 0
20.1 0.2 0
20.4 0.2 0
20.7 0.2 0
21 0.2 0
21.3 0.2 0
21.6 0.2 0
21.9 0.2 0
22.2 0.2 0
22.5 0.2 0
22.8 0.2 0
23.1 0.2 0
23.4 0.2 0
23.7 0.2 0
24 0.2 0
24.3 0.2 0
24.6 0.2 0
24.9 0.2 0
25.2 0.2 0
25.5 0.2 0
25.8 0.2 0
26.1 0.2 0
26.4 0.2 0
26.7 0.2 0
27 0.2 0
27.3 0.2 0
27.6 0.2 0
27.9 0.2 0
28.2 0.2 0
28.5 0.2 0
28.8 0.2 0
29.1 0.2 0
29.4 0.2 0
29.7 0.2 0
30 0.2 0
0 0.3 0
0.3 0.3 0
0.6 0.3 0
0.9 0.3 0
1.2 0.3 0
1.5 0.3 0
1.8 0.3 0
2.1 0.3 0
2.4 0.3 0
2.7 0.3 0
3 0.3 0
3.3 0.3 0
3.6 0.3 0
3.9 0.3 0
4.2 0.3 0
4.5 0.3 0
4.8 0.3 0
5.1 0.3 0
5.4 0.3 0
5.7 0.3 0
6 0.3 0
6.3 0.3 0
6.6 0.3 0
6.9 0.3 0
7.2 0.3 0
7.5 0.3 0
7.8 0.3 0
8.1 0.3 0
8.4 0.3 0
8.7 0.3 0
9 0.3 0
9.3 0.3 0
9.6 0.3 0
9.9 0.3 0
10.2 0.3 0
10.5 0.3 0
10.8 0.3 0
11.1 0.3 0
11.4 0.3 0
11.7 0.3 0
12 0.3 0
12.3 0.3 0
12.6 0.3 0
12.9 0.3 0
13.2 0.3 0
13.5 0.3 0
13.8 0.3 0
14.1 0.3 0
14.4 0.3 0
14.7 0.3 0
15 0.3 0
15.3 0.3 0
15.6 0.3 0
15.9 0.3 0
16.2 0.3 0
16.5 0.3 0
16.8 0.3 0
17.1 0.3 0
17.4 0.3 0
17.7 0.3 0
18 0.3 0
18.3 0.3 0
18.6 0.3 0
18.9 0.3 0
19.2 0.3 0
19.5 0.3 0
19.8 0.3 0
20.1 0.3 0
20.4 0.3 0
20.7 0.3 0
21 0.3 0
21.3 0.3 0
21.6 0.3 0
21.9 0.3 0
22.2 0.3 0
22.5 0.3 0
22.8 0.3 0
23.1 0.3 0
23.4 0.3 0
23.7 0.3 0
24 0.3 0
24.3 0.3 0
24.6 0.3 0
24.9 0.3 0
25.2 0.3 0
25.5 0.3 0
25.8 0.3 0
26.1 0.3 0
26.4 0.3 0
26.7 0.3 0
27 0.3 0
27.3 0.3 0
27.6 0.3 0
27.9 0.3 0
28.2 0.3 0
28.5 0.3 0
28.8 0.3 0
29.1 0.3 0
29.4 0.3 0
29.7 0.3 0
30 0.3 0
0 0.4 0
0.3 0.4 0
0.6 0.4 0
0.9 0.4 0
1.2 0.4 0
1.5 0.4 0
1.8 0.4 0
2.1 0.4 0
2.4 0.4 0
2.7 0.4 0
3 0.4 0
3.3 0.4 0
3.6 0.4 0
3.9 0.4 0
4.2 0.4 0
4.5 0.4 0
4.8 0.4 0
5.1 0.4 0
5.4 0.4 0
5.7 0.4 0
6 0.4 0
6.3 0.4 0
6.6 0.4 0
6.9 0.4 0
7.2 0.4 0
7.5 0.4 0
7.8 0.4 0
8.1 0.4 0
8.4 0.4 0
8.7 0.4 0
9 0.4 0
9.3 0.4 0
9.6 0.4 0
9.9 0.4 0
10.2 0.4 0
10.5 0.4 0
10.8 0.4 0
11.1 0.4 0
11.4 0.4 0
11.7 0.4 0
12 0.4 0
12.3 0.4 0
12.6 0.4 0
12.9 0.4 0
13.2 0.4 0
13.5 0.4 0
13.8 0.4 0
14.1 0.4 0
14.4 0.4 0
14.7 0.4 0
15 0.4 0
15.3 0.4 0
15.6 0.4 0
15.9 0.4 0
16.2 0.4 0
16.5 0.4 0
16.8 0.4 0
17.1 0.4 0
17.4 0.4 0
17.7 0.4 0
18 0.4 0
18.3 0.4 0
18.6 0.4 0
18.9 0.4 0
19.2 0.4 0
19.5 0.4 0
19.8 0.4 0
20.1 0.4 0
20.4 0.4 0
20.7 0.4 0
21 0.4 0
21.3 0.4 0
21.6 0.4 0
21.9 0.4 0
22.2 0.4 0
22.5 0.4 0
22.8 0.4 0
23.1 0.4 0
23.4 0.4 0
23.7 0.4 0
24 0.4 0
24.3 0.4 0
24.6 0.4 0
24.9 0.4 0
25.2 0.4 0
25.5 0.4 0
25.8 0.4 0
26.1 0.4 0
26.4 0.4 0
26.7 0.4 0
27 0.4 0
27.3 0.4 0
27.6 0.4 0
27.9 0.4 0
28.2 0.4 0
28.5 0.4 0
28.8 0.4 0
29.1 0.4 0
29.4 0.4 0
29.7 0.4 0
30 0.4 0
0 0.5 0
0.3 0.5 0
0.6 0.5 0
0.9 0.5 0
1.2 0.5 0
1.5 0.5 0
1.8 0.5 0
2.1 0.5 0
2.4 0.5 0
2.7 0.5 0
3 0.5 0
3.3 0.5 0
3.6 0.5 0
3.9 0.5 0
4.2 0.5 0
4.5 0.5 0
4.8 0.5 0
5.1 0.5 0
5.4 0.5 0
5.7 0.5 0
6 0.5 0
6.3 0.5 0
6.6 0.5 0
6.9 0.5 0
7.2 0.5 0
7.5 0.5 0
7.8 0.5 0
8.1 0.5 0
8.4 0.5 0
8.7 0.5 0
9 0.5 0
9.3 0.5 0
9.6 0.5 0
9.9 0.5 0
10.2 0.5 0
10.5 0.5 0
10.8 0.5 0
11.1 0.5 0
11.4 0.5 0
11.7 0.5 0
12 0.5 0
12.3 0.5 0
12.6 0.5 0
12.9 0.5 0
13.2 0.5 0
13.5 0.5 0
13.8 0.5 0
14.1 0.5 0
14.4 0.5 0
14.7 0.5 0
15 0.5 0
15.3 0.5 0
15.6 0.5 0
15.9 0.5 0
16.2 0.5 0
16.5 0.5 0
16.8 0.5 0
17.1 0.5 0
17.4 0.5 0
17.7 0.5 0
18 0.5 0
18.3 0.5 0
18.6 0.5 0
18.9 0.5 0
19.2 0.5 0
19.5 0.5 0
19.8 0.5 0
20.1 0.5 0
20.4 0.5 0
20.7 0.5 0
21 0.5 0
21.3 0.5 0
21.6 0.5 0
21.9 0.5 0
22.2 0.5 0
22.5 0.5 0
22.8 0.5 0
23.1 0.5 0
23.4 0.5 0
23.7 0.5 0
24 0.5 0
24.3 0.5 0
24.6 0.5 0
24.9 0.5 0
25.2 0.5 0
25.5 0.5 0
25.8 0.5 0
26.1 0.5 0
26.4 0.5 0
26.7 0.5 0
27 0.5 0
27.3 0.5 0
27.6 0.5 0
27.9 0.5 0
28.2 0.5 0
28.5 0.5 0
28.8 0.5 0
29.1 0.5 0
29.4 0.5 0
29.7 0.5 0
30 0.5 0
0 0.6 0
0.3 0.6 0
0.6 0.6 0
0.9 0.6 0
1.2 0.6 0
1.5 0.6 0
1.8 0.6 0
2.1 0.6 0
2.4 0.6 0
2.7 0.6 0
3 0.6 0
3.3 0.6 0
3.6 0.6 0
3.9 0.6 0
4.2 0.6 0
4.5 0.6 0
4.8 0.6 0
5.1 0.6 0
5.4 0.6 0
5.7 0.6 0
6 0.6 0
6.3 0.6 0
6.6 0.6 0
6.9 0.6 0
7.2 0.6 0
7.5 0.6 0
7.8 0.6 0
8.1 0.6 0
8.4 0.6 0
8.7 0.6 0
9 0.6 0
9.3 0.6 0
9.6 0.6 0
9.9 0.6 0
10.2 0.6 0
10.5 0.6 0
10.8 0.6 0
11.1 0.6 0
11.4 0.6 0
11.7 0.6 0
12 0.6 0
12.3 0.6 0
12.6 0.6 0
12.9 0.6 0
13.2 0.6 0
13.5 0.6 0
13.8 0.6 0
14.1 0.6 0
14.4 0.6 0
14.7 0.6 0
15 0.6 0
15.3 0.6 0
15.6 0.6 0
15.9 0.6 0
16.2 0.6 0
16.5 0.6 0
16.8 0.6 0
17.1 0.6 0
17.4 0.6 0
17.7 0.6 0
18 0.6 0
18.3 0.6 0
18.6 0.6 0
18.9 0.6 0
19.2 0.6 0
19.5 0.6 0
19.8 0.6 0
20.1 0.6 0
20.4 0.6 0
20.7 0.6 0
21 0.6 0
21.3 0.6 0
21.6 0.6 0
21.9 0.6 0
22.2 0.6 0
22.5 0.6 0
22.8 0.6 0
23.1 0.6 0
23.4 0.6 0
23.7 0.6 0
24 0.6 0
24.3 0.6 0
24.6 0.6 0
24.9 0.6 0
25.2 0.6 0
25.5 0.6 0
25.8 0.6 0
26.1 0.6 0
26.4 0.6 0
26.7 0.6 0
27 0.6 0
27.3 0.6 0
27.6 0.6 0
27.9 0.6 0
28.2 0.6 0
28.5 0.6 0
28.8 0.6 0
29.1 0.6 0
29.4 0.6 0
29.7 0.6 0
30 0.6 0
0 0.7 0
0.3 0.7 0
0.6 0.7 0
0.9 0.7 0
1.2 0.7 0
1.5 0.7 0
1.8 0.7 0
2.1 0.7 0
2.4 0.7 0
2.7 0.7 0
3 0.7 0
3.3 0.7 0
3.6 0.7 0
3.9 0.7 0
4.2 0.7 0
4.5 0.7 0
4.8 0.7 0
5.1 0.7 0
5.4 0.7 0
5.7 0.7 0
6 0.7 0
6.3 0.7 0
6.6 0.7 0
6.9 0.7 0
7.2 0.7 0
7.5 0.7 0
7.8 0.7 0
8.1 0.7 0
8.4 0.7 0
8.7 0.7 0
9 0.7 0
9.3 0.7 0
9.6 0.7 0
9.9 0.7 0
10.2 0.7 0
10.5 0.7 0
10.8 0.7 0
11.1 0.7 0
11.4 0.7 0
11.7 0.7 0
12 0.7 0
12.3 0.7 0
12.6 0.7 0
12.9 0.7 0
13.2 0.7 0
13.5 0.7 0
13.8 0.7 0
14.1 0.7 0
14.4 0.7 0
14.7 0.7 0
15 0.7 0
15.3 0.7 0
15.6 0.7 0
15.9 0.7 0
16.2 0.7 0
16.5 0.7 0
16.8 0.7 0
17.1 0.7 0
17.4 0.7 0
17.7 0.7 0
18 0.7 0
18.3 0.7 0
18.6 0.7 0
18.9 0.7 0
19.2 0.7 0
19.5 0.7 0
19.8 0.7 0
20.1 0.7 0
20.4 0.7 0
20.7 0.7 0
21 0.7 0
21.3 0.7 0
21.6 0.7 0
21.9 0.7 0
22.2 0.7 0
22.5 0.7 0
22.8 0.7 0
23.1 0.7 0
23.4 0.7 0
23.7 0.7 0
24 0.7 0
24.3 0.7 0
24.6 0.7 0
24.9 0.7 0
25.2 0.7 0
25.5 0.7 0
25.8 0.7 0
26.1 0.7 0
26.4 0.7 0
26.7 0.7 0
27 0.7 0
27.3 0.7 0
27.6 0.7 0
27.9 0.7 0
28.2 0.7 0
28.5 0.7 0
28.8 0.7 0
29.1 0.7 0
29.4 0.7 0
29.7 0.7 0
30 0.7 0
0 0.8 0
0.3 0.8 0
0.6 0.8 0
0.9 0.8 0
1.2 0.8 0
1.5 0.8 0
1.8 0.8 0
2.1 0.8 0
2.4 0.8 0
2.7 0.8 0
3 0.8 0
3.3 0.8 0
3.6 0.8 0
3.9 0.8 0
4.2 0.8 0
4.5 0.8 0
4.8 0.8 0
5.1 0.8 0
5.4 0.8 0
5.7 0.8 0
6 0.8 0
6.3 0.8 0
6.6 0.8 0
6.9 0.8 0
7.2 0.8 0
7.5 0.8 0
7.8 0.8 0
8.1 0.8 0
8.4 0.8 0
8.7 0.8 0
9 0.8 0
9.3 0.8 0
9.6 0.8 0
9.9 0.8 0
10.2 0.8 0
10.5 0.8 0
10.8 0.8 0
11.1 0.8 0
11.4 0.8 0
11.7 0.8 0
12 0.8 0
12.3 0.8 0
12.6 0.8 0
12.9 0.8 0
13.2 0.8 0
13.5 0.8 0
13.8 0.8 0
14.1 0.8 0
14.4 0.8 0
14.7 0.8 0
15 0.8 0
15.3 0.8 0
15.6 0.8 0
15.9 0.8 0
16.2 0.8 0
16.5 0.8 0
16.8 0.8 0
17.1 0.8 0
17.4 0.8 0
17.7 0.8 0
18 0.8 0
18.3 0.8 0
18.6 0.8 0
18.9 0.8 0
19.2 0.8 0
19.5 0.8 0
19.8 0.8 0
20.1 0.8 0
20.4 0.8 0
20.7 0.8 0
21 0.8 0
21.3 0.8 0
21.6 0.8 0
21.9 0.8 0
22.2 0.8 0
22.5 0.8 0
22.8 0.8 0
23.1 0.8 0
23.4 0.8 0
23.7 0.8 0
24 0.8 0
24.3 0.8 0
24.6 0.8 0
24.9 0.8 0
25.2 0.8 0
25.5 0.8 0
25.8 0.8 0
26.1 0.8 0
26.4 0.8 0
26.7 0.8 0
27 0.8 0
27.3 0.8 0
27.6 0.8 0
27.9 0.8 0
28.2 0.8 0
28.5 0.8 0
28.8 0.8 0
29.1 0.8 0
29.4 0.8 0
29.7 0.8 0
30 0.8 0
0 0.9 0
0.3 0.9 0
0.6 0.9 0
0.9 0.9 0
1.2 0.9 0
1.5 0.9 0
1.8 0.9 0
2.1 0.9 0
2.4 0.9 0
2.7 0.9 0
3 0.9 0
3.3 0.9 0
3.6 0.9 0
3.9 0.9 0
4.2 0.9 0
4.5 0.9 0
4.8 0.9 0
5.1 0.9 0
5.4 0.9 0
5.7 0.9 0
6 0.9 0
6.3 0.9 0
6.6 0.9 0
6.9 0.9 0
7.2 0.9 0
7.5 0.9 0
7.8 0.9 0
8.1 0.9 0
8.4 0.9 0
8.7 0.9 0
9 0.9 0
9.3 0.9 0
9.6 0.9 0
9.9 0.9 0
10.2 0.9 0
10.5 0.9 0
10.8 0.9 0
11.1 0.9 0
11.4 0.9 0
11.7 0.9 0
12 0.9 0
12.3 0.9 0
12.6 0.9 0
12.9 0.9 0
13.2 0.9 0
13.5 0.9 0
13.8 0.9 0
14.1 0.9 0
14.4 0.9 0
14.7 0.9 0
15 0.9 0
15.3 0.9 0
15.6 0.9 0
15.9 0.9 0
16.2 0.9 0
16.5 0.9 0
16.8 0.9 0
17.1 0.9 0
17.4 0.9 0
17.7 0.9 0
18 0.9 0
18.3 0.9 0
18.6 0.9 0
18.9 0.9 0
19.2 0.9 0
19.5 0.9 0
19.8 0.9 0
20.1 0.9 0
20.4 0.9 0
20.7 0.9 0
21 0.9 0
21.3 0.9 0
21.6 0.9 0
21.9 0.9 0
22.2 0.9 0
22.5 0.9 0
22.8 0.9 0
23.1 0.9 0
23.4 0.9 0
23.7 0.9 0
24 0.9 0
24.3 0.9 0
24.6 0.9 0
24.9 0.9 0
25.2 0.9 0
25.5 0.9 0
25.8 0.9 0
26.1 0.9 0
26.4 0.9 0
26.7 0.9 0
27 0.9 0
27.3 0.9 0
27.6 0.9 0
27.9 0.9 0
28.2 0.9 0
28.5 0.9 0
28.8 0.9 0
29.1 0.9 0
29.4 0.9 0
29.7 0.9 0
30 0.9 0
0 1 0
0.3 1 0
0.6 1 0
0.9 1 0
1.2 1 0
1.5 1 0
1.8 1 0
2.1 1 0
2.4 1 0
2.7 1 0
3 1 0
3.3 1 0
3.6 1 0
3.9 1 0
4.2 1 0
4.5 1 0
4.8 1 0
5.1 1 0
5.4 1 0
5.7 1 0
6 1 0
6.3 1 0
6.6 1 0
6.9 1 0
7.2 1 0
7.5 1 0
7.8 1 0
8.1 1 0
8.4 1 0
8.7 1 0
9 1 0
9.3 1 0
9.6 1 0
9.9 1 0
10.2 1 0
10.5 1 0
10.8 1 0
11.1 1 0
11.4 1 0
11.7 1 0
12 1 0
12.3 1 0
12.6 1 0
12.9 1 0
13.2 1 0
13.5 1 0
13.8 1 0
14.1 1 0
14.4 1 0
14.7 1 0
15 1 0
15.3 1 0
15.6 1 0
15.9 1 0
16.2 1 0
16.5 1 0
16.8 1 0
17.1 1 0
17.4 1 0
17.7 1 0
18 1 0
18.3 1 0
18.6 1 0
18.9 1 0
19.2 1 0
19.5 1 0
19.8 1 0
20.1 1 0
20.4 1 0
20.7 1 0
21 1 0
21.3 1 0
21.6 1 0
21.9 1 0
22.2 1 0
22.5 1 0
22.8 1 0
23.1 1 0
23.4 1 0
23.7 1 0
24 1 0
24.3 1 0
24.6 1 0
24.9 1 0
25.2 1 0
25.5 1 0
25.8 1 0
26.1 1 0
26.4 1 0
26.7 1 0
27 1 0
27.3 1 0
27.6 1 0
27.9 1 0
28.2 1 0
28.5 1 0
28.8 1 0
29.1 1 0
29.4 1 0
29.7 1 0
30 1 0

POINT_DATA 1111

SCALARS p double
LOOKUP_TABLE default
1.50663
1.50663
1.4379
1.3872
1.34037
1.29692
1.25726
1.22138
1.1889
1.15931
1.13208
1.10674
1.08289
1.06024
1.03856
1.01768
0.997452
0.977788
0.958606
0.939845
0.921457
0.9034
0.885641
0.86815
0.850903
0.833877
0.817053
0.800413
0.783943
0.767629
0.751457
0.735416
0.719496
0.703687
0.68798
0.672368
0.656844
0.641399
0.626029
0.610727
0.595489
0.580309
0.565183
0.550107
0.535077
0.520091
0.505143
0.490232
0.475355
0.460509
0.445692
0.430902
0.416137
0.401394
0.386673
0.371972
0.357289
0.342623
0.327973
0.313339
0.298719
0.284112
0.269518
0.254935
0.240364
0.225803
0.211251
0.196708
0.182174
0.167647
0.153126
0.138611
0.124102
0.109596
0.0950947
0.0805965
0.0661012
0.0516078
0.0371163
0.0226264
0.00813776
-0.00635004
-0.0208371
-0.0353237
-0.0498098
-0.0642955
-0.0787811
-0.0932665
-0.107752
-0.122237
-0.136722
-0.151207
-0.165692
-0.180177
-0.194662
-0.209147
-0.223632
-0.238117
-0.252602
-0.267086
0.267086
1.50663
1.50663
1.4379
1.3872
1.34037
1.29692
1.25726
1.22138
1.1889
1.15931
1.13208
1.10674
1.08289
1.06024
1.03856
1.01768
0.997452
0.977788
0.958606
0.939845
0.921457
0.9034
0.885641
0.86815
0.850903
0.833877
0.817053
0.800413
0.783943
0.767629
0.751457
0.735416
0.719496
0.703687
0.68798
0.672368
0.656844
0.641399
0.626029
0.610727
0.595489
0.580309
0.565183
0.550107
0.535077
0.520091
0.505143
0.490232
0.475355
0.460509
0.445692
0.430902
0.416137
0.401394
0.386673
0.371972
0.357289
0.342623
0.327973
0.313339
0.298719
0.284112
0.269518
0.254935
0.240364
0.225803
0.211251
0.196708
0.182174
0.167647
0.153126
0.138611
0.124102
0.109596
0.0950947
0.0805965
0.0661012
0.0516078
0.0371163
0.0226264
0.00813776
-0.00635004
-0.0208371
-0.0353237
-0.0498098
-0.0642955
-0.0787811
-0.0932665
-0.107752
-0.122237
-0.136722
-0.151207
-0.165692
-0.180177
-0.194662
-0.209147
-0.223632
-0.238117
-0.252602
-0.267086
0.267086
1.48637
1.48637
1.43633
1.3876
1.34109
1.29766
1.25792
1.22192
1.18933
1.15965
1.13234
1.10694
1.08305
1.06037
1.03867
1.01776
0.997524
0.977848
0.958658
0.939891
0.921497
0.903436
0.885672
0.868178
0.850928
0.8339
0.817073
0.800432
0.78396
0.767644
0.751471
0.735429
0.719508
0.703698
0.68799
0.672378
0.656852
0.641407
0.626036
0.610733
0.595495
0.580314
0.565188
0.550111
0.535082
0.520095
0.505147
0.490235
0.475358
0.460512
0.445695
0.430904
0.416139
0.401396
0.386675
0.371974
0.35729
0.342624
0.327975
0.313341
0.29872
0.284113
0.269519
0.254936
0.240365
0.225804
0.211252
0.196709
0.182174
0.167647
0.153126
0.138611
0.124102
0.109596
0.0950947
0.0805966
0.0661012
0.0516078
0.0371163
0.0226265
0.00813776
-0.00635005
-0.0208371
-0.0353237
-0.0498098
-0.0642955
-0.0787811
-0.0932665
-0.107752
-0.122237
-0.136722
-0.151207
-0.165692
-0.180177
-0.194662
-0.209147
-0.223632
-0.238117
-0.252602
-0.267086
0.267086
1.47277
1.47277
1.43426
1.38814
1.34221
1.29884
1.25898
1.22281
1.19004
1.1602
1.13276
1.10725
1.08329
1.06055
1.03881
1.01787
0.997612
0.97792
0.958718
0.939941
0.92154
0.903473
0.885705
0.868207
0.850953
0.833922
0.817093
0.80045
0.783977
0.767659
0.751484
0.735441
0.719519
0.703708
0.687999
0.672386
0.65686
0.641414
0.626042
0.610739
0.5955
0.580319
0.565192
0.550116
0.535086
0.520098
0.50515
0.490238
0.475361
0.460515
0.445697
0.430907
0.416141
0.401398
0.386677
0.371975
0.357292
0.342626
0.327976
0.313342
0.298721
0.284114
0.269519
0.254937
0.240365
0.225804
0.211252
0.196709
0.182175
0.167647
0.153126
0.138611
0.124102
0.109596
0.0950948
0.0805967
0.0661012
0.0516078
0.0371164
0.0226265
0.00813776
-0.00635006
-0.0208371
-0.0353237
-0.0498098
-0.0642955
-0.0787811
-0.0932665
-0.107752
-0.122237
-0.136722
-0.151207
-0.165692
-0.180177
-0.194662
-0.209147
-0.223632
-0.238117
-0.252602
-0.267086
0.267086
1.46527
1.46527
1.43278
1.38851
1.34305
1.29976
1.25983
1.22354
1.19063
1.16067
1.13312
1.10754
1.08351
1.06073
1.03895
1.01798
0.997703
0.977996
0.958782
0.939996
0.921588
0.903514
0.885741
0.868239
0.850982
0.833947
0.817116
0.80047
0.783995
0.767676
0.751499
0.735455
0.719531
0.703719
0.68801
0.672395
0.656868
0.641421
0.626049
0.610746
0.595506
0.580325
0.565197
0.55012
0.53509
0.520102
0.505153
0.490242
0.475364
0.460518
0.4457
0.430909
0.416143
0.4014
0.386678
0.371977
0.357293
0.342627
0.327978
0.313343
0.298722
0.284115
0.269521
0.254938
0.240366
0.225805
0.211253
0.19671
0.182175
0.167648
0.153127
0.138612
0.124102
0.109597
0.0950951
0.0805969
0.0661013
0.0516079
0.0371165
0.0226266
0.00813781
-0.00635002
-0.0208371
-0.0353236
-0.0498097
-0.0642955
-0.0787811
-0.0932665
-0.107752
-0.122237
-0.136722
-0.151207
-0.165692
-0.180177
-0.194662
-0.209147
-0.223632
-0.238117
-0.252601
-0.267086
0.267086
1.46289
1.46289
1.43228
1.38866
1.34337
1.30011
1.26016
1.22382
1.19086
1.16085
1.13327
1.10765
1.0836
1.0608
1.039
1.01803
0.997744
0.978031
0.958812
0.940022
0.92161
0.903534
0.885758
0.868254
0.850995
0.83396
0.817127
0.80048
0.784004
0.767684
0.751507
0.735461
0.719537
0.703724
0.688015
0.6724
0.656872
0.641425
0.626053
0.610749
0.595509
0.580327
0.5652
0.550123
0.535092
0.520104
0.505155
0.490243
0.475366
0.460519
0.445701
0.43091
0.416144
0.401401
0.386679
0.371978
0.357294
0.342628
0.327978
0.313343
0.298723
0.284116
0.269521
0.254938
0.240367
0.225805
0.211253
0.19671
0.182176
0.167648
0.153127
0.138612
0.124102
0.109597
0.0950952
0.080597
0.0661014
0.051608
0.0371166
0.0226266
0.00813784
-0.00634998
-0.0208371
-0.0353236
-0.0498097
-0.0642955
-0.0787811
-0.0932665
-0.107752
-0.122237
-0.136722
-0.151207
-0.165692
-0.180177
-0.194662
-0.209147
-0.223632
-0.238117
-0.252601
-0.267086
0.267086
1.46527
1.46527
1.43278
1.38851
1.34305
1.29976
1.25983
1.22354
1.19063
1.16067
1.13312
1.10754
1.08351
1.06073
1.03895
1.01798
0.997703
0.977996
0.958782
0.939996
0.921588
0.903514
0.885741
0.868239
0.850982
0.833947
0.817116
0.80047
0.783995
0.767676
0.751499
0.735455
0.719531
0.703719
0.68801
0.672395
0.656868
0.641421
0.626049
0.610746
0.595506
0.580325
0.565197
0.55012
0.53509
0.520102
0.505153
0.490242
0.475364
0.460517
0.4457
0.430909
0.416143
0.4014
0.386679
0.371977
0.357293
0.342627
0.327978
0.313343
0.298722
0.284115
0.26952
0.254938
0.240366
0.225805
0.211253
0.19671
0.182175
0.167648
0.153127
0.138612
0.124102
0.109597
0.0950951
0.0805968
0.0661013
0.051608
0.0371165
0.0226266
0.0081378
-0.00635001
-0.0208371
-0.0353236
-0.0498097
-0.0642955
-0.0787811
-0.0932665
-0.107752
-0.122237
-0.136722
-0.151207
-0.165692
-0.180177
-0.194662
-0.209147
-0.223632
-0.238117
-0.252601
-0.267086
0.267086
1.47277
1.47277
1.43426
1.38814
1.34221
1.29884
1.25898
1.22281
1.19004
1.1602
1.13276
1.10725
1.08329
1.06055
1.03881
1.01787
0.997612
0.97792
0.958718
0.939941
0.92154
0.903473
0.885705
0.868207
0.850953
0.833922
0.817093
0.80045
0.783977
0.767659
0.751484
0.735441
0.719519
0.703708
0.688
0.672386
0.65686
0.641414
0.626042
0.610739
0.5955
0.580319
0.565192
0.550116
0.535086
0.520098
0.50515
0.490239
0.475361
0.460515
0.445697
0.430907
0.416141
0.401398
0.386677
0.371975
0.357292
0.342626
0.327976
0.313341
0.298721
0.284114
0.269519
0.254937
0.240365
0.225804
0.211252
0.196709
0.182175
0.167647
0.153127
0.138612
0.124102
0.109596
0.0950949
0.0805966
0.0661011
0.0516079
0.0371164
0.0226265
0.00813775
-0.00635005
-0.0208371
-0.0353237
-0.0498098
-0.0642955
-0.0787811
-0.0932665
-0.107752
-0.122237
-0.136722
-0.151207
-0.165692
-0.180177
-0.194662
-0.209147
-0.223632
-0.238117
-0.252602
-0.267086
0.267086
1.48637
1.48637
1.43633
1.3876
1.34109
1.29766
1.25792
1.22192
1.18933
1.15965
1.13234
1.10694
1.08305
1.06037
1.03867
1.01776
0.997524
0.977848
0.958658
0.939891
0.921497
0.903435
0.885672
0.868178
0.850928
0.833899
0.817073
0.800432
0.783961
0.767644
0.751471
0.735429
0.719508
0.703698
0.68799
0.672378
0.656852
0.641407
0.626036
0.610734
0.595495
0.580314
0.565188
0.550112
0.535082
0.520094
0.505147
0.490236
0.475358
0.460512
0.445695
0.430905
0.416139
0.401396
0.386675
0.371973
0.35729
0.342625
0.327975
0.31334
0.29872
0.284113
0.269519
0.254936
0.240365
0.225803
0.211252
0.196709
0.182174
0.167647
0.153126
0.138611
0.124102
0.109596
0.0950948
0.0805966
0.0661011
0.0516078
0.0371164
0.0226265
0.00813774
-0.00635005
-0.0208371
-0.0353237
-0.0498098
-0.0642955
-0.0787811
-0.0932665
-0.107752
-0.122237
-0.136722
-0.151207
-0.165692
-0.180177
-0.194662
-0.209147
-0.223632
-0.238117
-0.252602
-0.267086
0.267086
1.50663
1.50663
1.4379
1.3872
1.34037
1.29692
1.25726
1.22138
1.1889
1.15931
1.13208
1.10674
1.08289
1.06024
1.03856
1.01768
0.997452
0.977788
0.958606
0.939845
0.921457
0.9034
0.885641
0.86815
0.850903
0.833877
0.817052
0.800413
0.783943
0.767629
0.751457
0.735416
0.719496
0.703687
0.687981
0.672369
0.656844
0.641399
0.626029
0.610727
0.595489
0.580309
0.565183
0.550107
0.535077
0.52009
0.505143
0.490232
0.475355
0.460509
0.445692
0.430902
0.416137
0.401394
0.386673
0.371972
0.357289
0.342623
0.327974
0.313339
0.298719
0.284112
0.269518
0.254935
0.240364
0.225803
0.211251
0.196709
0.182174
0.167647
0.153126
0.138611
0.124102
0.109596
0.0950948
0.0805966
0.0661011
0.0516078
0.0371164
0.0226265
0.00813776
-0.00635004
-0.0208371
-0.0353237
-0.0498098
-0.0642955
-0.0787811
-0.0932665
-0.107752
-0.122237
-0.136722
-0.151207
-0.165692
-0.180177
-0.194662
-0.209147
-0.223632
-0.238117
-0.252602
-0.267086
0.267086
1.50663
1.50663
1.4379
1.3872
1.34037
1.29692
1.25726
1.22138
1.1889
1.15931
1.13208
1.10674
1.08289
1.06024
1.03856
1.01768
0.997452
0.977788
0.958606
0.939845
0.921457
0.9034
0.885641
0.86815
0.850903
0.833877
0.817052
0.800413
0.783943
0.767629
0.751457
0.735416
0.719496
0.703687
0.687981
0.672369
0.656844
0.641399
0.626029
0.610727
0.595489
0.580309
0.565183
0.550107
0.535077
0.52009
0.505143
0.490232
0.475355
0.460509
0.445692
0.430902
0.416137
0.401394
0.386673
0.371972
0.357289
0.342623
0.327974
0.313339
0.298719
0.284112
0.269518
0.254935
0.240364
0.225803
0.211251
0.196709
0.182174
0.167647
0.153126
0.138611
0.124102
0.109596
0.0950948
0.0805966
0.0661011
0.0516078
0.0371164
0.0226265
0.00813776
-0.00635004
-0.0208371
-0.0353237
-0.0498098
-0.0642955
-0.0787811
-0.0932665
-0.107752
-0.122237
-0.136722
-0.151207
-0.165692
-0.180177
-0.194662
-0.209147
-0.223632
-0.238117
-0.252602
-0.267086
0.267086
