# vtk DataFile Version 2.0
FlowField
ASCII
DATASET STRUCTURED_GRID
DIMENSIONS 102 1 12 
POINTS 1224 double
0 0 0
0.4 0 0
0.8 0 0
1.2 0 0
1.6 0 0
2 0 0
2.4 0 0
2.8 0 0
3.2 0 0
3.6 0 0
4 0 0
4.4 0 0
4.8 0 0
5.2 0 0
5.6 0 0
6 0 0
6.4 0 0
6.8 0 0
7.2 0 0
7.6 0 0
8 0 0
8.4 0 0
8.8 0 0
9.2 0 0
9.6 0 0
10 0 0
10.4 0 0
10.8 0 0
11.2 0 0
11.6 0 0
12 0 0
12.4 0 0
12.8 0 0
13.2 0 0
13.6 0 0
14 0 0
14.4 0 0
14.8 0 0
15.2 0 0
15.6 0 0
16 0 0
16.4 0 0
16.8 0 0
17.2 0 0
17.6 0 0
18 0 0
18.4 0 0
18.8 0 0
19.2 0 0
19.6 0 0
20 0 0
20.4 0 0
20.8 0 0
21.2 0 0
21.6 0 0
22 0 0
22.4 0 0
22.8 0 0
23.2 0 0
23.6 0 0
24 0 0
24.4 0 0
24.8 0 0
25.2 0 0
25.6 0 0
26 0 0
26.4 0 0
26.8 0 0
27.2 0 0
27.6 0 0
28 0 0
28.4 0 0
28.8 0 0
29.2 0 0
29.6 0 0
30 0 0
30.4 0 0
30.8 0 0
31.2 0 0
31.6 0 0
32 0 0
32.4 0 0
32.8 0 0
33.2 0 0
33.6 0 0
34 0 0
34.4 0 0
34.8 0 0
35.2 0 0
35.6 0 0
36 0 0
36.4 0 0
36.8 0 0
37.2 0 0
37.6 0 0
38 0 0
38.4 0 0
38.8 0 0
39.2 0 0
39.6 0 0
40 0 0
40.4 0 0
0 0.1 0
0.4 0.1 0
0.8 0.1 0
1.2 0.1 0
1.6 0.1 0
2 0.1 0
2.4 0.1 0
2.8 0.1 0
3.2 0.1 0
3.6 0.1 0
4 0.1 0
4.4 0.1 0
4.8 0.1 0
5.2 0.1 0
5.6 0.1 0
6 0.1 0
6.4 0.1 0
6.8 0.1 0
7.2 0.1 0
7.6 0.1 0
8 0.1 0
8.4 0.1 0
8.8 0.1 0
9.2 0.1 0
9.6 0.1 0
10 0.1 0
10.4 0.1 0
10.8 0.1 0
11.2 0.1 0
11.6 0.1 0
12 0.1 0
12.4 0.1 0
12.8 0.1 0
13.2 0.1 0
13.6 0.1 0
14 0.1 0
14.4 0.1 0
14.8 0.1 0
15.2 0.1 0
15.6 0.1 0
16 0.1 0
16.4 0.1 0
16.8 0.1 0
17.2 0.1 0
17.6 0.1 0
18 0.1 0
18.4 0.1 0
18.8 0.1 0
19.2 0.1 0
19.6 0.1 0
20 0.1 0
20.4 0.1 0
20.8 0.1 0
21.2 0.1 0
21.6 0.1 0
22 0.1 0
22.4 0.1 0
22.8 0.1 0
23.2 0.1 0
23.6 0.1 0
24 0.1 0
24.4 0.1 0
24.8 0.1 0
25.2 0.1 0
25.6 0.1 0
26 0.1 0
26.4 0.1 0
26.8 0.1 0
27.2 0.1 0
27.6 0.1 0
28 0.1 0
28.4 0.1 0
28.8 0.1 0
29.2 0.1 0
29.6 0.1 0
30 0.1 0
30.4 0.1 0
30.8 0.1 0
31.2 0.1 0
31.6 0.1 0
32 0.1 0
32.4 0.1 0
32.8 0.1 0
33.2 0.1 0
33.6 0.1 0
34 0.1 0
34.4 0.1 0
34.8 0.1 0
35.2 0.1 0
35.6 0.1 0
36 0.1 0
36.4 0.1 0
36.8 0.1 0
37.2 0.1 0
37.6 0.1 0
38 0.1 0
38.4 0.1 0
38.8 0.1 0
39.2 0.1 0
39.6 0.1 0
40 0.1 0
40.4 0.1 0
0 0.2 0
0.4 0.2 0
0.8 0.2 0
1.2 0.2 0
1.6 0.2 0
2 0.2 0
2.4 0.2 0
2.8 0.2 0
3.2 0.2 0
3.6 0.2 0
4 0.2 0
4.4 0.2 0
4.8 0.2 0
5.2 0.2 0
5.6 0.2 0
6 0.2 0
6.4 0.2 0
6.8 0.2 0
7.2 0.2 0
7.6 0.2 0
8 0.2 0
8.4 0.2 0
8.8 0.2 0
9.2 0.2 0
9.6 0.2 0
10 0.2 0
10.4 0.2 0
10.8 0.2 0
11.2 0.2 0
11.6 0.2 0
12 0.2 0
12.4 0.2 0
12.8 0.2 0
13.2 0.2 0
13.6 0.2 0
14 0.2 0
14.4 0.2 0
14.8 0.2 0
15.2 0.2 0
15.6 0.2 0
16 0.2 0
16.4 0.2 0
16.8 0.2 0
17.2 0.2 0
17.6 0.2 0
18 0.2 0
18.4 0.2 0
18.8 0.2 0
19.2 0.2 0
19.6 0.2 0
20 0.2 0
20.4 0.2 0
20.8 0.2 0
21.2 0.2 0
21.6 0.2 0
22 0.2 0
22.4 0.2 0
22.8 0.2 0
23.2 0.2 0
23.6 0.2 0
24 0.2 0
24.4 0.2 0
24.8 0.2 0
25.2 0.2 0
25.6 0.2 0
26 0.2 0
26.4 0.2 0
26.8 0.2 0
27.2 0.2 0
27.6 0.2 0
28 0.2 0
28.4 0.2 0
28.8 0.2 0
29.2 0.2 0
29.6 0.2 0
30 0.2 0
30.4 0.2 0
30.8 0.2 0
31.2 0.2 0
31.6 0.2 0
32 0.2 0
32.4 0.2 0
32.8 0.2 0
33.2 0.2 0
33.6 0.2 0
34 0.2 0
34.4 0.2 0
34.8 0.2 0
35.2 0.2 0
35.6 0.2 0
36 0.2 0
36.4 0.2 0
36.8 0.2 0
37.2 0.2 0
37.6 0.2 0
38 0.2 0
38.4 0.2 0
38.8 0.2 0
39.2 0.2 0
39.6 0.2 0
40 0.2 0
40.4 0.2 0
0 0.3 0
0.4 0.3 0
0.8 0.3 0
1.2 0.3 0
1.6 0.3 0
2 0.3 0
2.4 0.3 0
2.8 0.3 0
3.2 0.3 0
3.6 0.3 0
4 0.3 0
4.4 0.3 0
4.8 0.3 0
5.2 0.3 0
5.6 0.3 0
6 0.3 0
6.4 0.3 0
6.8 0.3 0
7.2 0.3 0
7.6 0.3 0
8 0.3 0
8.4 0.3 0
8.8 0.3 0
9.2 0.3 0
9.6 0.3 0
10 0.3 0
10.4 0.3 0
10.8 0.3 0
11.2 0.3 0
11.6 0.3 0
12 0.3 0
12.4 0.3 0
12.8 0.3 0
13.2 0.3 0
13.6 0.3 0
14 0.3 0
14.4 0.3 0
14.8 0.3 0
15.2 0.3 0
15.6 0.3 0
16 0.3 0
16.4 0.3 0
16.8 0.3 0
17.2 0.3 0
17.6 0.3 0
18 0.3 0
18.4 0.3 0
18.8 0.3 0
19.2 0.3 0
19.6 0.3 0
20 0.3 0
20.4 0.3 0
20.8 0.3 0
21.2 0.3 0
21.6 0.3 0
22 0.3 0
22.4 0.3 0
22.8 0.3 0
23.2 0.3 0
23.6 0.3 0
24 0.3 0
24.4 0.3 0
24.8 0.3 0
25.2 0.3 0
25.6 0.3 0
26 0.3 0
26.4 0.3 0
26.8 0.3 0
27.2 0.3 0
27.6 0.3 0
28 0.3 0
28.4 0.3 0
28.8 0.3 0
29.2 0.3 0
29.6 0.3 0
30 0.3 0
30.4 0.3 0
30.8 0.3 0
31.2 0.3 0
31.6 0.3 0
32 0.3 0
32.4 0.3 0
32.8 0.3 0
33.2 0.3 0
33.6 0.3 0
34 0.3 0
34.4 0.3 0
34.8 0.3 0
35.2 0.3 0
35.6 0.3 0
36 0.3 0
36.4 0.3 0
36.8 0.3 0
37.2 0.3 0
37.6 0.3 0
38 0.3 0
38.4 0.3 0
38.8 0.3 0
39.2 0.3 0
39.6 0.3 0
40 0.3 0
40.4 0.3 0
0 0.4 0
0.4 0.4 0
0.8 0.4 0
1.2 0.4 0
1.6 0.4 0
2 0.4 0
2.4 0.4 0
2.8 0.4 0
3.2 0.4 0
3.6 0.4 0
4 0.4 0
4.4 0.4 0
4.8 0.4 0
5.2 0.4 0
5.6 0.4 0
6 0.4 0
6.4 0.4 0
6.8 0.4 0
7.2 0.4 0
7.6 0.4 0
8 0.4 0
8.4 0.4 0
8.8 0.4 0
9.2 0.4 0
9.6 0.4 0
10 0.4 0
10.4 0.4 0
10.8 0.4 0
11.2 0.4 0
11.6 0.4 0
12 0.4 0
12.4 0.4 0
12.8 0.4 0
13.2 0.4 0
13.6 0.4 0
14 0.4 0
14.4 0.4 0
14.8 0.4 0
15.2 0.4 0
15.6 0.4 0
16 0.4 0
16.4 0.4 0
16.8 0.4 0
17.2 0.4 0
17.6 0.4 0
18 0.4 0
18.4 0.4 0
18.8 0.4 0
19.2 0.4 0
19.6 0.4 0
20 0.4 0
20.4 0.4 0
20.8 0.4 0
21.2 0.4 0
21.6 0.4 0
22 0.4 0
22.4 0.4 0
22.8 0.4 0
23.2 0.4 0
23.6 0.4 0
24 0.4 0
24.4 0.4 0
24.8 0.4 0
25.2 0.4 0
25.6 0.4 0
26 0.4 0
26.4 0.4 0
26.8 0.4 0
27.2 0.4 0
27.6 0.4 0
28 0.4 0
28.4 0.4 0
28.8 0.4 0
29.2 0.4 0
29.6 0.4 0
30 0.4 0
30.4 0.4 0
30.8 0.4 0
31.2 0.4 0
31.6 0.4 0
32 0.4 0
32.4 0.4 0
32.8 0.4 0
33.2 0.4 0
33.6 0.4 0
34 0.4 0
34.4 0.4 0
34.8 0.4 0
35.2 0.4 0
35.6 0.4 0
36 0.4 0
36.4 0.4 0
36.8 0.4 0
37.2 0.4 0
37.6 0.4 0
38 0.4 0
38.4 0.4 0
38.8 0.4 0
39.2 0.4 0
39.6 0.4 0
40 0.4 0
40.4 0.4 0
0 0.5 0
0.4 0.5 0
0.8 0.5 0
1.2 0.5 0
1.6 0.5 0
2 0.5 0
2.4 0.5 0
2.8 0.5 0
3.2 0.5 0
3.6 0.5 0
4 0.5 0
4.4 0.5 0
4.8 0.5 0
5.2 0.5 0
5.6 0.5 0
6 0.5 0
6.4 0.5 0
6.8 0.5 0
7.2 0.5 0
7.6 0.5 0
8 0.5 0
8.4 0.5 0
8.8 0.5 0
9.2 0.5 0
9.6 0.5 0
10 0.5 0
10.4 0.5 0
10.8 0.5 0
11.2 0.5 0
11.6 0.5 0
12 0.5 0
12.4 0.5 0
12.8 0.5 0
13.2 0.5 0
13.6 0.5 0
14 0.5 0
14.4 0.5 0
14.8 0.5 0
15.2 0.5 0
15.6 0.5 0
16 0.5 0
16.4 0.5 0
16.8 0.5 0
17.2 0.5 0
17.6 0.5 0
18 0.5 0
18.4 0.5 0
18.8 0.5 0
19.2 0.5 0
19.6 0.5 0
20 0.5 0
20.4 0.5 0
20.8 0.5 0
21.2 0.5 0
21.6 0.5 0
22 0.5 0
22.4 0.5 0
22.8 0.5 0
23.2 0.5 0
23.6 0.5 0
24 0.5 0
24.4 0.5 0
24.8 0.5 0
25.2 0.5 0
25.6 0.5 0
26 0.5 0
26.4 0.5 0
26.8 0.5 0
27.2 0.5 0
27.6 0.5 0
28 0.5 0
28.4 0.5 0
28.8 0.5 0
29.2 0.5 0
29.6 0.5 0
30 0.5 0
30.4 0.5 0
30.8 0.5 0
31.2 0.5 0
31.6 0.5 0
32 0.5 0
32.4 0.5 0
32.8 0.5 0
33.2 0.5 0
33.6 0.5 0
34 0.5 0
34.4 0.5 0
34.8 0.5 0
35.2 0.5 0
35.6 0.5 0
36 0.5 0
36.4 0.5 0
36.8 0.5 0
37.2 0.5 0
37.6 0.5 0
38 0.5 0
38.4 0.5 0
38.8 0.5 0
39.2 0.5 0
39.6 0.5 0
40 0.5 0
40.4 0.5 0
0 0.6 0
0.4 0.6 0
0.8 0.6 0
1.2 0.6 0
1.6 0.6 0
2 0.6 0
2.4 0.6 0
2.8 0.6 0
3.2 0.6 0
3.6 0.6 0
4 0.6 0
4.4 0.6 0
4.8 0.6 0
5.2 0.6 0
5.6 0.6 0
6 0.6 0
6.4 0.6 0
6.8 0.6 0
7.2 0.6 0
7.6 0.6 0
8 0.6 0
8.4 0.6 0
8.8 0.6 0
9.2 0.6 0
9.6 0.6 0
10 0.6 0
10.4 0.6 0
10.8 0.6 0
11.2 0.6 0
11.6 0.6 0
12 0.6 0
12.4 0.6 0
12.8 0.6 0
13.2 0.6 0
13.6 0.6 0
14 0.6 0
14.4 0.6 0
14.8 0.6 0
15.2 0.6 0
15.6 0.6 0
16 0.6 0
16.4 0.6 0
16.8 0.6 0
17.2 0.6 0
17.6 0.6 0
18 0.6 0
18.4 0.6 0
18.8 0.6 0
19.2 0.6 0
19.6 0.6 0
20 0.6 0
20.4 0.6 0
20.8 0.6 0
21.2 0.6 0
21.6 0.6 0
22 0.6 0
22.4 0.6 0
22.8 0.6 0
23.2 0.6 0
23.6 0.6 0
24 0.6 0
24.4 0.6 0
24.8 0.6 0
25.2 0.6 0
25.6 0.6 0
26 0.6 0
26.4 0.6 0
26.8 0.6 0
27.2 0.6 0
27.6 0.6 0
28 0.6 0
28.4 0.6 0
28.8 0.6 0
29.2 0.6 0
29.6 0.6 0
30 0.6 0
30.4 0.6 0
30.8 0.6 0
31.2 0.6 0
31.6 0.6 0
32 0.6 0
32.4 0.6 0
32.8 0.6 0
33.2 0.6 0
33.6 0.6 0
34 0.6 0
34.4 0.6 0
34.8 0.6 0
35.2 0.6 0
35.6 0.6 0
36 0.6 0
36.4 0.6 0
36.8 0.6 0
37.2 0.6 0
37.6 0.6 0
38 0.6 0
38.4 0.6 0
38.8 0.6 0
39.2 0.6 0
39.6 0.6 0
40 0.6 0
40.4 0.6 0
0 0.7 0
0.4 0.7 0
0.8 0.7 0
1.2 0.7 0
1.6 0.7 0
2 0.7 0
2.4 0.7 0
2.8 0.7 0
3.2 0.7 0
3.6 0.7 0
4 0.7 0
4.4 0.7 0
4.8 0.7 0
5.2 0.7 0
5.6 0.7 0
6 0.7 0
6.4 0.7 0
6.8 0.7 0
7.2 0.7 0
7.6 0.7 0
8 0.7 0
8.4 0.7 0
8.8 0.7 0
9.2 0.7 0
9.6 0.7 0
10 0.7 0
10.4 0.7 0
10.8 0.7 0
11.2 0.7 0
11.6 0.7 0
12 0.7 0
12.4 0.7 0
12.8 0.7 0
13.2 0.7 0
13.6 0.7 0
14 0.7 0
14.4 0.7 0
14.8 0.7 0
15.2 0.7 0
15.6 0.7 0
16 0.7 0
16.4 0.7 0
16.8 0.7 0
17.2 0.7 0
17.6 0.7 0
18 0.7 0
18.4 0.7 0
18.8 0.7 0
19.2 0.7 0
19.6 0.7 0
20 0.7 0
20.4 0.7 0
20.8 0.7 0
21.2 0.7 0
21.6 0.7 0
22 0.7 0
22.4 0.7 0
22.8 0.7 0
23.2 0.7 0
23.6 0.7 0
24 0.7 0
24.4 0.7 0
24.8 0.7 0
25.2 0.7 0
25.6 0.7 0
26 0.7 0
26.4 0.7 0
26.8 0.7 0
27.2 0.7 0
27.6 0.7 0
28 0.7 0
28.4 0.7 0
28.8 0.7 0
29.2 0.7 0
29.6 0.7 0
30 0.7 0
30.4 0.7 0
30.8 0.7 0
31.2 0.7 0
31.6 0.7 0
32 0.7 0
32.4 0.7 0
32.8 0.7 0
33.2 0.7 0
33.6 0.7 0
34 0.7 0
34.4 0.7 0
34.8 0.7 0
35.2 0.7 0
35.6 0.7 0
36 0.7 0
36.4 0.7 0
36.8 0.7 0
37.2 0.7 0
37.6 0.7 0
38 0.7 0
38.4 0.7 0
38.8 0.7 0
39.2 0.7 0
39.6 0.7 0
40 0.7 0
40.4 0.7 0
0 0.8 0
0.4 0.8 0
0.8 0.8 0
1.2 0.8 0
1.6 0.8 0
2 0.8 0
2.4 0.8 0
2.8 0.8 0
3.2 0.8 0
3.6 0.8 0
4 0.8 0
4.4 0.8 0
4.8 0.8 0
5.2 0.8 0
5.6 0.8 0
6 0.8 0
6.4 0.8 0
6.8 0.8 0
7.2 0.8 0
7.6 0.8 0
8 0.8 0
8.4 0.8 0
8.8 0.8 0
9.2 0.8 0
9.6 0.8 0
10 0.8 0
10.4 0.8 0
10.8 0.8 0
11.2 0.8 0
11.6 0.8 0
12 0.8 0
12.4 0.8 0
12.8 0.8 0
13.2 0.8 0
13.6 0.8 0
14 0.8 0
14.4 0.8 0
14.8 0.8 0
15.2 0.8 0
15.6 0.8 0
16 0.8 0
16.4 0.8 0
16.8 0.8 0
17.2 0.8 0
17.6 0.8 0
18 0.8 0
18.4 0.8 0
18.8 0.8 0
19.2 0.8 0
19.6 0.8 0
20 0.8 0
20.4 0.8 0
20.8 0.8 0
21.2 0.8 0
21.6 0.8 0
22 0.8 0
22.4 0.8 0
22.8 0.8 0
23.2 0.8 0
23.6 0.8 0
24 0.8 0
24.4 0.8 0
24.8 0.8 0
25.2 0.8 0
25.6 0.8 0
26 0.8 0
26.4 0.8 0
26.8 0.8 0
27.2 0.8 0
27.6 0.8 0
28 0.8 0
28.4 0.8 0
28.8 0.8 0
29.2 0.8 0
29.6 0.8 0
30 0.8 0
30.4 0.8 0
30.8 0.8 0
31.2 0.8 0
31.6 0.8 0
32 0.8 0
32.4 0.8 0
32.8 0.8 0
33.2 0.8 0
33.6 0.8 0
34 0.8 0
34.4 0.8 0
34.8 0.8 0
35.2 0.8 0
35.6 0.8 0
36 0.8 0
36.4 0.8 0
36.8 0.8 0
37.2 0.8 0
37.6 0.8 0
38 0.8 0
38.4 0.8 0
38.8 0.8 0
39.2 0.8 0
39.6 0.8 0
40 0.8 0
40.4 0.8 0
0 0.9 0
0.4 0.9 0
0.8 0.9 0
1.2 0.9 0
1.6 0.9 0
2 0.9 0
2.4 0.9 0
2.8 0.9 0
3.2 0.9 0
3.6 0.9 0
4 0.9 0
4.4 0.9 0
4.8 0.9 0
5.2 0.9 0
5.6 0.9 0
6 0.9 0
6.4 0.9 0
6.8 0.9 0
7.2 0.9 0
7.6 0.9 0
8 0.9 0
8.4 0.9 0
8.8 0.9 0
9.2 0.9 0
9.6 0.9 0
10 0.9 0
10.4 0.9 0
10.8 0.9 0
11.2 0.9 0
11.6 0.9 0
12 0.9 0
12.4 0.9 0
12.8 0.9 0
13.2 0.9 0
13.6 0.9 0
14 0.9 0
14.4 0.9 0
14.8 0.9 0
15.2 0.9 0
15.6 0.9 0
16 0.9 0
16.4 0.9 0
16.8 0.9 0
17.2 0.9 0
17.6 0.9 0
18 0.9 0
18.4 0.9 0
18.8 0.9 0
19.2 0.9 0
19.6 0.9 0
20 0.9 0
20.4 0.9 0
20.8 0.9 0
21.2 0.9 0
21.6 0.9 0
22 0.9 0
22.4 0.9 0
22.8 0.9 0
23.2 0.9 0
23.6 0.9 0
24 0.9 0
24.4 0.9 0
24.8 0.9 0
25.2 0.9 0
25.6 0.9 0
26 0.9 0
26.4 0.9 0
26.8 0.9 0
27.2 0.9 0
27.6 0.9 0
28 0.9 0
28.4 0.9 0
28.8 0.9 0
29.2 0.9 0
29.6 0.9 0
30 0.9 0
30.4 0.9 0
30.8 0.9 0
31.2 0.9 0
31.6 0.9 0
32 0.9 0
32.4 0.9 0
32.8 0.9 0
33.2 0.9 0
33.6 0.9 0
34 0.9 0
34.4 0.9 0
34.8 0.9 0
35.2 0.9 0
35.6 0.9 0
36 0.9 0
36.4 0.9 0
36.8 0.9 0
37.2 0.9 0
37.6 0.9 0
38 0.9 0
38.4 0.9 0
38.8 0.9 0
39.2 0.9 0
39.6 0.9 0
40 0.9 0
40.4 0.9 0
0 1 0
0.4 1 0
0.8 1 0
1.2 1 0
1.6 1 0
2 1 0
2.4 1 0
2.8 1 0
3.2 1 0
3.6 1 0
4 1 0
4.4 1 0
4.8 1 0
5.2 1 0
5.6 1 0
6 1 0
6.4 1 0
6.8 1 0
7.2 1 0
7.6 1 0
8 1 0
8.4 1 0
8.8 1 0
9.2 1 0
9.6 1 0
10 1 0
10.4 1 0
10.8 1 0
11.2 1 0
11.6 1 0
12 1 0
12.4 1 0
12.8 1 0
13.2 1 0
13.6 1 0
14 1 0
14.4 1 0
14.8 1 0
15.2 1 0
15.6 1 0
16 1 0
16.4 1 0
16.8 1 0
17.2 1 0
17.6 1 0
18 1 0
18.4 1 0
18.8 1 0
19.2 1 0
19.6 1 0
20 1 0
20.4 1 0
20.8 1 0
21.2 1 0
21.6 1 0
22 1 0
22.4 1 0
22.8 1 0
23.2 1 0
23.6 1 0
24 1 0
24.4 1 0
24.8 1 0
25.2 1 0
25.6 1 0
26 1 0
26.4 1 0
26.8 1 0
27.2 1 0
27.6 1 0
28 1 0
28.4 1 0
28.8 1 0
29.2 1 0
29.6 1 0
30 1 0
30.4 1 0
30.8 1 0
31.2 1 0
31.6 1 0
32 1 0
32.4 1 0
32.8 1 0
33.2 1 0
33.6 1 0
34 1 0
34.4 1 0
34.8 1 0
35.2 1 0
35.6 1 0
36 1 0
36.4 1 0
36.8 1 0
37.2 1 0
37.6 1 0
38 1 0
38.4 1 0
38.8 1 0
39.2 1 0
39.6 1 0
40 1 0
40.4 1 0
0 1.1 0
0.4 1.1 0
0.8 1.1 0
1.2 1.1 0
1.6 1.1 0
2 1.1 0
2.4 1.1 0
2.8 1.1 0
3.2 1.1 0
3.6 1.1 0
4 1.1 0
4.4 1.1 0
4.8 1.1 0
5.2 1.1 0
5.6 1.1 0
6 1.1 0
6.4 1.1 0
6.8 1.1 0
7.2 1.1 0
7.6 1.1 0
8 1.1 0
8.4 1.1 0
8.8 1.1 0
9.2 1.1 0
9.6 1.1 0
10 1.1 0
10.4 1.1 0
10.8 1.1 0
11.2 1.1 0
11.6 1.1 0
12 1.1 0
12.4 1.1 0
12.8 1.1 0
13.2 1.1 0
13.6 1.1 0
14 1.1 0
14.4 1.1 0
14.8 1.1 0
15.2 1.1 0
15.6 1.1 0
16 1.1 0
16.4 1.1 0
16.8 1.1 0
17.2 1.1 0
17.6 1.1 0
18 1.1 0
18.4 1.1 0
18.8 1.1 0
19.2 1.1 0
19.6 1.1 0
20 1.1 0
20.4 1.1 0
20.8 1.1 0
21.2 1.1 0
21.6 1.1 0
22 1.1 0
22.4 1.1 0
22.8 1.1 0
23.2 1.1 0
23.6 1.1 0
24 1.1 0
24.4 1.1 0
24.8 1.1 0
25.2 1.1 0
25.6 1.1 0
26 1.1 0
26.4 1.1 0
26.8 1.1 0
27.2 1.1 0
27.6 1.1 0
28 1.1 0
28.4 1.1 0
28.8 1.1 0
29.2 1.1 0
29.6 1.1 0
30 1.1 0
30.4 1.1 0
30.8 1.1 0
31.2 1.1 0
31.6 1.1 0
32 1.1 0
32.4 1.1 0
32.8 1.1 0
33.2 1.1 0
33.6 1.1 0
34 1.1 0
34.4 1.1 0
34.8 1.1 0
35.2 1.1 0
35.6 1.1 0
36 1.1 0
36.4 1.1 0
36.8 1.1 0
37.2 1.1 0
37.6 1.1 0
38 1.1 0
38.4 1.1 0
38.8 1.1 0
39.2 1.1 0
39.6 1.1 0
40 1.1 0
40.4 1.1 0

POINT_DATA 1224

SCALARS v double
LOOKUP_TABLE default
0
0
0
0
0
0
0
0
0
0
0
0
0
0
0
0
0
0
0
0
0
0
0
0
0
0
0
0
0
0
0
0
0
0
0
0
0
0
0
0
0
0
0
0
0
0
0
0
0
0
0
0
0
0
0
0
0
0
0
0
0
0
0
0
0
0
0
0
0
0
0
0
0
0
0
0
0
0
0
0
0
0
0
0
0
0
0
0
0
0
0
0
0
0
0
0
0
0
0
0
0
0
0
0.0787076
0.0554406
0.0327103
0.0178113
0.00965826
0.00557768
0.0035471
0.0024703
0.00183774
0.0014258
0.00113509
0.000918475
0.00075143
0.000619645
0.000513886
0.000428047
0.000357837
0.0002999
0.000251814
0.000211864
0.000178492
0.000150439
0.000126917
0.000107192
9.05379e-05
7.64921e-05
6.46667e-05
5.4667e-05
4.62305e-05
3.91124e-05
3.30709e-05
2.7966e-05
2.36745e-05
2.00382e-05
1.69369e-05
1.43253e-05
1.21399e-05
1.02727e-05
8.67841e-06
7.34531e-06
6.22503e-06
5.26673e-06
4.45255e-06
3.76877e-06
3.18722e-06
2.70159e-06
2.29118e-06
1.92902e-06
1.63309e-06
1.38971e-06
1.1728e-06
9.90738e-07
8.3791e-07
7.08581e-07
5.99128e-07
5.04277e-07
4.23774e-07
3.55348e-07
2.97464e-07
2.47644e-07
2.04808e-07
1.68158e-07
1.37973e-07
1.12448e-07
9.00668e-08
7.16817e-08
5.71937e-08
4.52178e-08
3.47299e-08
2.66915e-08
2.09728e-08
1.58515e-08
1.17022e-08
9.13247e-09
6.9191e-09
5.23587e-09
4.05343e-09
3.16242e-09
2.58271e-09
2.12988e-09
1.80551e-09
1.576e-09
1.46062e-09
1.30896e-09
1.23347e-09
1.1797e-09
1.13228e-09
1.11457e-09
1.08216e-09
1.03486e-09
1.03287e-09
1.00436e-09
9.68822e-10
9.83143e-10
9.24708e-10
9.85219e-10
7.81454e-10
1.17312e-09
7.23843e-10
-1.56575e-09
-1.56575e-09
0
0.0668416
0.0608389
0.042293
0.0271275
0.0175004
0.0118522
0.00849208
0.00637029
0.00493624
0.00391079
0.00314666
0.0025604
0.00210109
0.00173543
0.00144063
0.00120071
0.00100391
0.00084137
0.000706528
0.000594298
0.00050047
0.00042181
0.000355842
0.000300392
0.000253665
0.000214305
0.00018112
0.000153099
0.000129455
0.000109477
9.25747e-05
7.8305e-05
6.62558e-05
5.60481e-05
4.74018e-05
4.01116e-05
3.39534e-05
2.87196e-05
2.42916e-05
2.05627e-05
1.74054e-05
1.47239e-05
1.24574e-05
1.05423e-05
8.92068e-06
7.55527e-06
6.3923e-06
5.40125e-06
4.57686e-06
3.87663e-06
3.27576e-06
2.77062e-06
2.3426e-06
1.97995e-06
1.67083e-06
1.4068e-06
1.18222e-06
9.90957e-07
8.27912e-07
6.88106e-07
5.68737e-07
4.67319e-07
3.8215e-07
3.09625e-07
2.48272e-07
1.978e-07
1.56585e-07
1.22353e-07
9.42419e-08
7.24099e-08
5.53096e-08
4.1229e-08
3.06463e-08
2.29182e-08
1.67474e-08
1.22817e-08
8.98982e-09
6.63347e-09
4.95947e-09
3.75528e-09
2.90899e-09
2.33943e-09
1.95451e-09
1.64352e-09
1.47198e-09
1.33558e-09
1.24678e-09
1.19222e-09
1.12399e-09
1.07089e-09
1.05212e-09
1.00633e-09
9.84176e-10
9.83194e-10
9.04381e-10
1.04738e-09
6.3219e-10
1.7571e-09
-2.18425e-09
-5.88564e-09
-5.88564e-09
0
0.0434614
0.0450425
0.0342517
0.0238913
0.0167606
0.0122648
0.0093733
0.00739326
0.00595018
0.0048499
0.00398639
0.00329624
0.00273791
0.00228215
0.00190761
0.00159822
0.00134148
0.00112761
0.000949033
0.000799578
0.000674144
0.000568756
0.000480153
0.000405512
0.000342572
0.000289507
0.000244719
0.000206896
0.00017496
0.00014796
0.000125133
0.000105856
8.95567e-05
7.57539e-05
6.40817e-05
5.42301e-05
4.58897e-05
3.88157e-05
3.28421e-05
2.77989e-05
2.3523e-05
1.99004e-05
1.68398e-05
1.42501e-05
1.20605e-05
1.02104e-05
8.63502e-06
7.30446e-06
6.18841e-06
5.23601e-06
4.42698e-06
3.74509e-06
3.16669e-06
2.67606e-06
2.25773e-06
1.90171e-06
1.59861e-06
1.34049e-06
1.11992e-06
9.31176e-07
7.70247e-07
6.33664e-07
5.18195e-07
4.19856e-07
3.37341e-07
2.69193e-07
2.12912e-07
1.66219e-07
1.28443e-07
9.87283e-08
7.49217e-08
5.5839e-08
4.15846e-08
3.06803e-08
2.22355e-08
1.61018e-08
1.15452e-08
8.30048e-09
5.94437e-09
4.29265e-09
3.12608e-09
2.34513e-09
1.78614e-09
1.39789e-09
1.15776e-09
9.75567e-10
8.65129e-10
7.83801e-10
6.98828e-10
6.49045e-10
6.19173e-10
5.76155e-10
5.59635e-10
5.39855e-10
4.86599e-10
6.44879e-10
2.17167e-10
1.61798e-09
-4.67425e-09
-8.12733e-09
-8.12733e-09
0
0.0210569
0.0230874
0.0183628
0.0133673
0.00978213
0.00744488
0.00588653
0.00477597
0.00393344
0.00326682
0.00272644
0.00228249
0.00191491
0.00160902
0.00135365
0.00113997
0.000960742
0.000810196
0.000683663
0.000577146
0.000487363
0.000411707
0.000347914
0.000294041
0.000248554
0.000210153
0.000177702
0.000150282
0.000127111
0.000107507
9.09384e-05
7.69404e-05
6.50919e-05
5.50598e-05
4.65851e-05
3.94266e-05
3.33566e-05
2.82148e-05
2.38789e-05
2.02114e-05
1.70992e-05
1.44669e-05
1.22428e-05
1.03601e-05
8.77008e-06
7.42205e-06
6.27541e-06
5.31269e-06
4.50022e-06
3.80536e-06
3.2185e-06
2.72313e-06
2.30294e-06
1.94597e-06
1.64171e-06
1.38324e-06
1.16314e-06
9.75771e-07
8.15305e-07
6.78209e-07
5.61405e-07
4.62368e-07
3.7822e-07
3.06528e-07
2.46688e-07
1.97142e-07
1.55859e-07
1.21641e-07
9.42189e-08
7.24254e-08
5.47044e-08
4.07498e-08
3.03389e-08
2.21337e-08
1.59127e-08
1.13561e-08
7.97077e-09
5.5551e-09
3.78419e-09
2.56633e-09
1.69736e-09
1.11907e-09
6.93921e-10
4.25605e-10
2.40912e-10
1.09574e-10
3.21915e-11
-3.76418e-11
-1.04076e-10
-1.3235e-10
-1.57032e-10
-1.84196e-10
-1.99389e-10
-2.1404e-10
-2.23054e-10
-1.03595e-10
-3.32317e-10
7.53069e-10
-3.97615e-09
-5.57616e-09
-5.57616e-09
0
-3.67627e-09
2.85554e-09
4.97206e-09
5.31442e-09
7.54098e-09
4.43349e-09
-1.9109e-09
2.61765e-09
1.43327e-08
7.11874e-09
-6.24538e-09
1.15939e-08
1.68304e-08
-8.14429e-09
2.36759e-09
2.20603e-08
-1.69374e-09
-4.64728e-09
2.28152e-08
8.1914e-09
-1.44559e-08
4.33891e-09
1.45428e-08
8.05691e-10
3.13584e-10
4.28403e-09
1.4159e-09
5.08456e-09
4.03704e-09
-3.10823e-09
2.03879e-09
7.87835e-09
1.19457e-09
-3.94606e-09
2.83445e-09
7.48604e-09
-6.20329e-10
-3.41331e-09
3.86885e-09
4.12618e-09
-8.94869e-11
1.93958e-10
6.07843e-10
1.44075e-09
3.68621e-09
5.20661e-10
-1.72356e-09
2.61656e-09
2.93938e-09
2.47043e-10
5.25896e-10
1.14699e-09
1.55803e-09
1.15753e-09
7.45148e-10
6.66424e-10
7.09443e-10
8.39345e-10
4.05913e-10
1.96132e-10
1.11611e-10
2.50249e-10
-2.03882e-11
-4.20157e-10
-3.43183e-10
-2.37755e-10
-5.31072e-10
-7.80435e-10
-6.55318e-10
-6.59419e-10
-9.5645e-10
-9.81556e-10
-8.72318e-10
-1.02183e-09
-1.02792e-09
-1.03755e-09
-1.03413e-09
-1.02936e-09
-1.03355e-09
-1.00374e-09
-9.96261e-10
-9.75923e-10
-9.73127e-10
-9.47309e-10
-9.47187e-10
-9.39412e-10
-9.33574e-10
-9.49416e-10
-9.63743e-10
-9.5849e-10
-9.65472e-10
-9.73238e-10
-9.77082e-10
-9.7343e-10
-9.43553e-10
-8.92255e-10
-7.94125e-10
-5.3101e-10
-3.5673e-10
7.77916e-10
7.77916e-10
0
-0.0210569
-0.0230874
-0.0183628
-0.0133673
-0.00978211
-0.00744487
-0.00588652
-0.00477597
-0.00393342
-0.00326681
-0.00272644
-0.00228247
-0.00191488
-0.00160902
-0.00135365
-0.00113993
-0.000960735
-0.000810205
-0.000683634
-0.000577127
-0.00048738
-0.000411705
-0.00034789
-0.000294035
-0.000248554
-0.000210146
-0.000177698
-0.000150275
-0.000127102
-0.00010751
-9.09364e-05
-7.69285e-05
-6.50873e-05
-5.50646e-05
-4.65825e-05
-3.94145e-05
-3.33548e-05
-2.82199e-05
-2.38739e-05
-2.02041e-05
-1.70977e-05
-1.44664e-05
-1.22418e-05
-1.03574e-05
-8.76428e-06
-7.41979e-06
-6.27732e-06
-5.30952e-06
-4.49469e-06
-3.80382e-06
-3.21753e-06
-2.72096e-06
-2.30016e-06
-1.94357e-06
-1.64003e-06
-1.38186e-06
-1.16172e-06
-9.74136e-07
-8.14302e-07
-6.77615e-07
-5.61037e-07
-4.61833e-07
-3.77997e-07
-3.07008e-07
-2.47173e-07
-1.97461e-07
-1.56563e-07
-1.22789e-07
-9.5293e-08
-7.34562e-08
-5.61549e-08
-4.23533e-08
-3.17722e-08
-2.37552e-08
-1.75879e-08
-1.30401e-08
-9.65921e-09
-7.23393e-09
-5.467e-09
-4.20553e-09
-3.3294e-09
-2.71436e-09
-2.28254e-09
-1.98033e-09
-1.78893e-09
-1.64733e-09
-1.56345e-09
-1.52077e-09
-1.483e-09
-1.45327e-09
-1.4424e-09
-1.43181e-09
-1.41968e-09
-1.40406e-09
-1.34786e-09
-1.3735e-09
-9.60751e-10
-1.56538e-09
3.52198e-09
7.12752e-09
7.12752e-09
0
-0.0434614
-0.0450425
-0.0342517
-0.0238913
-0.0167606
-0.0122647
-0.00937329
-0.00739326
-0.00595018
-0.00484988
-0.00398638
-0.00329624
-0.00273789
-0.00228214
-0.00190761
-0.00159821
-0.00134145
-0.00112761
-0.000949044
-0.000799554
-0.000674132
-0.000568768
-0.000480144
-0.000405495
-0.000342573
-0.000289505
-0.000244713
-0.000206895
-0.000174952
-0.000147954
-0.000125135
-0.000105853
-8.95473e-05
-7.57508e-05
-6.40859e-05
-5.42254e-05
-4.5881e-05
-3.88162e-05
-3.28437e-05
-2.77944e-05
-2.35178e-05
-1.98993e-05
-1.68392e-05
-1.42477e-05
-1.20584e-05
-1.02056e-05
-8.63302e-06
-7.30592e-06
-6.18414e-06
-5.23195e-06
-4.42607e-06
-3.74325e-06
-3.16469e-06
-2.67354e-06
-2.25559e-06
-1.90022e-06
-1.59716e-06
-1.33895e-06
-1.11846e-06
-9.30064e-07
-7.69489e-07
-6.33003e-07
-5.17325e-07
-4.19405e-07
-3.37267e-07
-2.69076e-07
-2.12706e-07
-1.66294e-07
-1.28852e-07
-9.90003e-08
-7.51876e-08
-5.64699e-08
-4.21843e-08
-3.12046e-08
-2.28972e-08
-1.67561e-08
-1.22253e-08
-8.97628e-09
-6.61029e-09
-4.95233e-09
-3.79707e-09
-2.99373e-09
-2.42472e-09
-2.04646e-09
-1.78998e-09
-1.6109e-09
-1.50694e-09
-1.43966e-09
-1.38392e-09
-1.35373e-09
-1.33298e-09
-1.31578e-09
-1.29623e-09
-1.28511e-09
-1.21713e-09
-1.29893e-09
-7.48036e-10
-1.71401e-09
4.92815e-09
9.63104e-09
9.63104e-09
0
-0.0668415
-0.0608389
-0.042293
-0.0271275
-0.0175004
-0.0118522
-0.00849206
-0.00637029
-0.00493626
-0.00391077
-0.00314663
-0.00256042
-0.0021011
-0.00173539
-0.00144063
-0.00120072
-0.00100387
-0.000841369
-0.000706576
-0.000594278
-0.000500427
-0.00042183
-0.000355853
-0.000300367
-0.000253664
-0.000214309
-0.000181113
-0.000153103
-0.00012945
-0.000109463
-9.25794e-05
-7.83131e-05
-6.62438e-05
-5.6036e-05
-4.74109e-05
-4.01163e-05
-3.39394e-05
-2.87137e-05
-2.42988e-05
-2.05625e-05
-1.73969e-05
-1.47212e-05
-1.24572e-05
-1.05405e-05
-8.92216e-06
-7.54896e-06
-6.38567e-06
-5.40632e-06
-4.57523e-06
-3.87011e-06
-3.27435e-06
-2.76923e-06
-2.34136e-06
-1.97753e-06
-1.66815e-06
-1.40508e-06
-1.18069e-06
-9.89487e-07
-8.25962e-07
-6.86342e-07
-5.6743e-07
-4.66401e-07
-3.80578e-07
-3.08032e-07
-2.47399e-07
-1.97078e-07
-1.55331e-07
-1.21105e-07
-9.36973e-08
-7.17373e-08
-5.41757e-08
-4.05635e-08
-3.0168e-08
-2.21149e-08
-1.61076e-08
-1.16529e-08
-8.39394e-09
-6.05175e-09
-4.34916e-09
-3.17287e-09
-2.3553e-09
-1.78596e-09
-1.38785e-09
-1.13336e-09
-9.50128e-10
-8.30925e-10
-7.63838e-10
-7.13184e-10
-6.77582e-10
-6.63539e-10
-6.45241e-10
-6.38053e-10
-6.25081e-10
-6.25576e-10
-5.69986e-10
-6.62116e-10
-2.14755e-10
-9.34551e-10
3.25222e-09
7.38863e-09
7.38863e-09
0
-0.0787076
-0.0554406
-0.0327103
-0.0178114
-0.00965828
-0.00557768
-0.00354708
-0.0024703
-0.00183777
-0.00142579
-0.00113506
-0.000918497
-0.000751449
-0.000619598
-0.000513877
-0.000428079
-0.000357806
-0.000299885
-0.00025187
-0.000211858
-0.000178433
-0.000150452
-0.000126945
-0.000107171
-9.053e-05
-7.64984e-05
-6.46607e-05
-5.46717e-05
-4.62292e-05
-3.90949e-05
-3.30729e-05
-2.798e-05
-2.36655e-05
-2.00205e-05
-1.6944e-05
-1.4337e-05
-1.21268e-05
-1.02609e-05
-8.68612e-06
-7.34952e-06
-6.21672e-06
-5.26163e-06
-4.452e-06
-3.76765e-06
-3.19003e-06
-2.69656e-06
-2.28158e-06
-1.93348e-06
-1.63492e-06
-1.38262e-06
-1.17005e-06
-9.89648e-07
-8.36962e-07
-7.06616e-07
-5.96135e-07
-5.02192e-07
-4.22097e-07
-3.53831e-07
-2.95257e-07
-2.4535e-07
-2.02937e-07
-1.66848e-07
-1.35977e-07
-1.09969e-07
-8.83579e-08
-7.03403e-08
-5.52011e-08
-4.29204e-08
-3.31925e-08
-2.52197e-08
-1.88185e-08
-1.40022e-08
-1.02561e-08
-7.30714e-09
-5.16337e-09
-3.54925e-09
-2.38968e-09
-1.53961e-09
-9.24177e-10
-5.09427e-10
-2.17252e-10
-7.90377e-13
1.27303e-10
1.96514e-10
2.53553e-10
2.80422e-10
2.92876e-10
3.06018e-10
3.06239e-10
3.02531e-10
3.05892e-10
2.94758e-10
2.93902e-10
2.8527e-10
2.98999e-10
2.54753e-10
4.38574e-10
1.64721e-10
9.0617e-10
3.04466e-09
3.04466e-09
0
0
0
0
0
0
0
0
0
0
0
0
0
0
0
0
0
0
0
0
0
0
0
0
0
0
0
0
0
0
0
0
0
0
0
0
0
0
0
0
0
0
0
0
0
0
0
0
0
0
0
0
0
0
0
0
0
0
0
0
0
0
0
0
0
0
0
0
0
0
0
0
0
0
0
0
0
0
0
0
0
0
0
0
0
0
0
0
0
0
0
0
0
0
0
0
0
0
0
0
0
0
0
0
0
0
0
0
0
0
0
0
0
0
0
0
0
0
0
0
0
0
0
0
0
0
0
0
0
0
0
0
0
0
0
0
0
0
0
0
0
0
0
0
0
0
0
0
0
0
0
0
0
0
0
0
0
0
0
0
0
0
0
0
0
0
0
0
0
0
0
0
0
0
0
0
0
0
0
0
0
0
0
0
0
0
0
0
0
0
0
0
0
0
0
0
0
0
0
0
0
0
0
0
