# vtk DataFile Version 2.0
FlowField
ASCII
DATASET STRUCTURED_GRID
DIMENSIONS 101 11 1 
POINTS 1111 double
0 0 0
0.3 0 0
0.6 0 0
0.9 0 0
1.2 0 0
1.5 0 0
1.8 0 0
2.1 0 0
2.4 0 0
2.7 0 0
3 0 0
3.3 0 0
3.6 0 0
3.9 0 0
4.2 0 0
4.5 0 0
4.8 0 0
5.1 0 0
5.4 0 0
5.7 0 0
6 0 0
6.3 0 0
6.6 0 0
6.9 0 0
7.2 0 0
7.5 0 0
7.8 0 0
8.1 0 0
8.4 0 0
8.7 0 0
9 0 0
9.3 0 0
9.6 0 0
9.9 0 0
10.2 0 0
10.5 0 0
10.8 0 0
11.1 0 0
11.4 0 0
11.7 0 0
12 0 0
12.3 0 0
12.6 0 0
12.9 0 0
13.2 0 0
13.5 0 0
13.8 0 0
14.1 0 0
14.4 0 0
14.7 0 0
15 0 0
15.3 0 0
15.6 0 0
15.9 0 0
16.2 0 0
16.5 0 0
16.8 0 0
17.1 0 0
17.4 0 0
17.7 0 0
18 0 0
18.3 0 0
18.6 0 0
18.9 0 0
19.2 0 0
19.5 0 0
19.8 0 0
20.1 0 0
20.4 0 0
20.7 0 0
21 0 0
21.3 0 0
21.6 0 0
21.9 0 0
22.2 0 0
22.5 0 0
22.8 0 0
23.1 0 0
23.4 0 0
23.7 0 0
24 0 0
24.3 0 0
24.6 0 0
24.9 0 0
25.2 0 0
25.5 0 0
25.8 0 0
26.1 0 0
26.4 0 0
26.7 0 0
27 0 0
27.3 0 0
27.6 0 0
27.9 0 0
28.2 0 0
28.5 0 0
28.8 0 0
29.1 0 0
29.4 0 0
29.7 0 0
30 0 0
0 0.1 0
0.3 0.1 0
0.6 0.1 0
0.9 0.1 0
1.2 0.1 0
1.5 0.1 0
1.8 0.1 0
2.1 0.1 0
2.4 0.1 0
2.7 0.1 0
3 0.1 0
3.3 0.1 0
3.6 0.1 0
3.9 0.1 0
4.2 0.1 0
4.5 0.1 0
4.8 0.1 0
5.1 0.1 0
5.4 0.1 0
5.7 0.1 0
6 0.1 0
6.3 0.1 0
6.6 0.1 0
6.9 0.1 0
7.2 0.1 0
7.5 0.1 0
7.8 0.1 0
8.1 0.1 0
8.4 0.1 0
8.7 0.1 0
9 0.1 0
9.3 0.1 0
9.6 0.1 0
9.9 0.1 0
10.2 0.1 0
10.5 0.1 0
10.8 0.1 0
11.1 0.1 0
11.4 0.1 0
11.7 0.1 0
12 0.1 0
12.3 0.1 0
12.6 0.1 0
12.9 0.1 0
13.2 0.1 0
13.5 0.1 0
13.8 0.1 0
14.1 0.1 0
14.4 0.1 0
14.7 0.1 0
15 0.1 0
15.3 0.1 0
15.6 0.1 0
15.9 0.1 0
16.2 0.1 0
16.5 0.1 0
16.8 0.1 0
17.1 0.1 0
17.4 0.1 0
17.7 0.1 0
18 0.1 0
18.3 0.1 0
18.6 0.1 0
18.9 0.1 0
19.2 0.1 0
19.5 0.1 0
19.8 0.1 0
20.1 0.1 0
20.4 0.1 0
20.7 0.1 0
21 0.1 0
21.3 0.1 0
21.6 0.1 0
21.9 0.1 0
22.2 0.1 0
22.5 0.1 0
22.8 0.1 0
23.1 0.1 0
23.4 0.1 0
23.7 0.1 0
24 0.1 0
24.3 0.1 0
24.6 0.1 0
24.9 0.1 0
25.2 0.1 0
25.5 0.1 0
25.8 0.1 0
26.1 0.1 0
26.4 0.1 0
26.7 0.1 0
27 0.1 0
27.3 0.1 0
27.6 0.1 0
27.9 0.1 0
28.2 0.1 0
28.5 0.1 0
28.8 0.1 0
29.1 0.1 0
29.4 0.1 0
29.7 0.1 0
30 0.1 0
0 0.2 0
0.3 0.2 0
0.6 0.2 0
0.9 0.2 0
1.2 0.2 0
1.5 0.2 0
1.8 0.2 0
2.1 0.2 0
2.4 0.2 0
2.7 0.2 0
3 0.2 0
3.3 0.2 0
3.6 0.2 0
3.9 0.2 0
4.2 0.2 0
4.5 0.2 0
4.8 0.2 0
5.1 0.2 0
5.4 0.2 0
5.7 0.2 0
6 0.2 0
6.3 0.2 0
6.6 0.2 0
6.9 0.2 0
7.2 0.2 0
7.5 0.2 0
7.8 0.2 0
8.1 0.2 0
8.4 0.2 0
8.7 0.2 0
9 0.2 0
9.3 0.2 0
9.6 0.2 0
9.9 0.2 0
10.2 0.2 0
10.5 0.2 0
10.8 0.2 0
11.1 0.2 0
11.4 0.2 0
11.7 0.2 0
12 0.2 0
12.3 0.2 0
12.6 0.2 0
12.9 0.2 0
13.2 0.2 0
13.5 0.2 0
13.8 0.2 0
14.1 0.2 0
14.4 0.2 0
14.7 0.2 0
15 0.2 0
15.3 0.2 0
15.6 0.2 0
15.9 0.2 0
16.2 0.2 0
16.5 0.2 0
16.8 0.2 0
17.1 0.2 0
17.4 0.2 0
17.7 0.2 0
18 0.2 0
18.3 0.2 0
18.6 0.2 0
18.9 0.2 0
19.2 0.2 0
19.5 0.2 0
19.8 0.2 0
20.1 0.2 0
20.4 0.2 0
20.7 0.2 0
21 0.2 0
21.3 0.2 0
21.6 0.2 0
21.9 0.2 0
22.2 0.2 0
22.5 0.2 0
22.8 0.2 0
23.1 0.2 0
23.4 0.2 0
23.7 0.2 0
24 0.2 0
24.3 0.2 0
24.6 0.2 0
24.9 0.2 0
25.2 0.2 0
25.5 0.2 0
25.8 0.2 0
26.1 0.2 0
26.4 0.2 0
26.7 0.2 0
27 0.2 0
27.3 0.2 0
27.6 0.2 0
27.9 0.2 0
28.2 0.2 0
28.5 0.2 0
28.8 0.2 0
29.1 0.2 0
29.4 0.2 0
29.7 0.2 0
30 0.2 0
0 0.3 0
0.3 0.3 0
0.6 0.3 0
0.9 0.3 0
1.2 0.3 0
1.5 0.3 0
1.8 0.3 0
2.1 0.3 0
2.4 0.3 0
2.7 0.3 0
3 0.3 0
3.3 0.3 0
3.6 0.3 0
3.9 0.3 0
4.2 0.3 0
4.5 0.3 0
4.8 0.3 0
5.1 0.3 0
5.4 0.3 0
5.7 0.3 0
6 0.3 0
6.3 0.3 0
6.6 0.3 0
6.9 0.3 0
7.2 0.3 0
7.5 0.3 0
7.8 0.3 0
8.1 0.3 0
8.4 0.3 0
8.7 0.3 0
9 0.3 0
9.3 0.3 0
9.6 0.3 0
9.9 0.3 0
10.2 0.3 0
10.5 0.3 0
10.8 0.3 0
11.1 0.3 0
11.4 0.3 0
11.7 0.3 0
12 0.3 0
12.3 0.3 0
12.6 0.3 0
12.9 0.3 0
13.2 0.3 0
13.5 0.3 0
13.8 0.3 0
14.1 0.3 0
14.4 0.3 0
14.7 0.3 0
15 0.3 0
15.3 0.3 0
15.6 0.3 0
15.9 0.3 0
16.2 0.3 0
16.5 0.3 0
16.8 0.3 0
17.1 0.3 0
17.4 0.3 0
17.7 0.3 0
18 0.3 0
18.3 0.3 0
18.6 0.3 0
18.9 0.3 0
19.2 0.3 0
19.5 0.3 0
19.8 0.3 0
20.1 0.3 0
20.4 0.3 0
20.7 0.3 0
21 0.3 0
21.3 0.3 0
21.6 0.3 0
21.9 0.3 0
22.2 0.3 0
22.5 0.3 0
22.8 0.3 0
23.1 0.3 0
23.4 0.3 0
23.7 0.3 0
24 0.3 0
24.3 0.3 0
24.6 0.3 0
24.9 0.3 0
25.2 0.3 0
25.5 0.3 0
25.8 0.3 0
26.1 0.3 0
26.4 0.3 0
26.7 0.3 0
27 0.3 0
27.3 0.3 0
27.6 0.3 0
27.9 0.3 0
28.2 0.3 0
28.5 0.3 0
28.8 0.3 0
29.1 0.3 0
29.4 0.3 0
29.7 0.3 0
30 0.3 0
0 0.4 0
0.3 0.4 0
0.6 0.4 0
0.9 0.4 0
1.2 0.4 0
1.5 0.4 0
1.8 0.4 0
2.1 0.4 0
2.4 0.4 0
2.7 0.4 0
3 0.4 0
3.3 0.4 0
3.6 0.4 0
3.9 0.4 0
4.2 0.4 0
4.5 0.4 0
4.8 0.4 0
5.1 0.4 0
5.4 0.4 0
5.7 0.4 0
6 0.4 0
6.3 0.4 0
6.6 0.4 0
6.9 0.4 0
7.2 0.4 0
7.5 0.4 0
7.8 0.4 0
8.1 0.4 0
8.4 0.4 0
8.7 0.4 0
9 0.4 0
9.3 0.4 0
9.6 0.4 0
9.9 0.4 0
10.2 0.4 0
10.5 0.4 0
10.8 0.4 0
11.1 0.4 0
11.4 0.4 0
11.7 0.4 0
12 0.4 0
12.3 0.4 0
12.6 0.4 0
12.9 0.4 0
13.2 0.4 0
13.5 0.4 0
13.8 0.4 0
14.1 0.4 0
14.4 0.4 0
14.7 0.4 0
15 0.4 0
15.3 0.4 0
15.6 0.4 0
15.9 0.4 0
16.2 0.4 0
16.5 0.4 0
16.8 0.4 0
17.1 0.4 0
17.4 0.4 0
17.7 0.4 0
18 0.4 0
18.3 0.4 0
18.6 0.4 0
18.9 0.4 0
19.2 0.4 0
19.5 0.4 0
19.8 0.4 0
20.1 0.4 0
20.4 0.4 0
20.7 0.4 0
21 0.4 0
21.3 0.4 0
21.6 0.4 0
21.9 0.4 0
22.2 0.4 0
22.5 0.4 0
22.8 0.4 0
23.1 0.4 0
23.4 0.4 0
23.7 0.4 0
24 0.4 0
24.3 0.4 0
24.6 0.4 0
24.9 0.4 0
25.2 0.4 0
25.5 0.4 0
25.8 0.4 0
26.1 0.4 0
26.4 0.4 0
26.7 0.4 0
27 0.4 0
27.3 0.4 0
27.6 0.4 0
27.9 0.4 0
28.2 0.4 0
28.5 0.4 0
28.8 0.4 0
29.1 0.4 0
29.4 0.4 0
29.7 0.4 0
30 0.4 0
0 0.5 0
0.3 0.5 0
0.6 0.5 0
0.9 0.5 0
1.2 0.5 0
1.5 0.5 0
1.8 0.5 0
2.1 0.5 0
2.4 0.5 0
2.7 0.5 0
3 0.5 0
3.3 0.5 0
3.6 0.5 0
3.9 0.5 0
4.2 0.5 0
4.5 0.5 0
4.8 0.5 0
5.1 0.5 0
5.4 0.5 0
5.7 0.5 0
6 0.5 0
6.3 0.5 0
6.6 0.5 0
6.9 0.5 0
7.2 0.5 0
7.5 0.5 0
7.8 0.5 0
8.1 0.5 0
8.4 0.5 0
8.7 0.5 0
9 0.5 0
9.3 0.5 0
9.6 0.5 0
9.9 0.5 0
10.2 0.5 0
10.5 0.5 0
10.8 0.5 0
11.1 0.5 0
11.4 0.5 0
11.7 0.5 0
12 0.5 0
12.3 0.5 0
12.6 0.5 0
12.9 0.5 0
13.2 0.5 0
13.5 0.5 0
13.8 0.5 0
14.1 0.5 0
14.4 0.5 0
14.7 0.5 0
15 0.5 0
15.3 0.5 0
15.6 0.5 0
15.9 0.5 0
16.2 0.5 0
16.5 0.5 0
16.8 0.5 0
17.1 0.5 0
17.4 0.5 0
17.7 0.5 0
18 0.5 0
18.3 0.5 0
18.6 0.5 0
18.9 0.5 0
19.2 0.5 0
19.5 0.5 0
19.8 0.5 0
20.1 0.5 0
20.4 0.5 0
20.7 0.5 0
21 0.5 0
21.3 0.5 0
21.6 0.5 0
21.9 0.5 0
22.2 0.5 0
22.5 0.5 0
22.8 0.5 0
23.1 0.5 0
23.4 0.5 0
23.7 0.5 0
24 0.5 0
24.3 0.5 0
24.6 0.5 0
24.9 0.5 0
25.2 0.5 0
25.5 0.5 0
25.8 0.5 0
26.1 0.5 0
26.4 0.5 0
26.7 0.5 0
27 0.5 0
27.3 0.5 0
27.6 0.5 0
27.9 0.5 0
28.2 0.5 0
28.5 0.5 0
28.8 0.5 0
29.1 0.5 0
29.4 0.5 0
29.7 0.5 0
30 0.5 0
0 0.6 0
0.3 0.6 0
0.6 0.6 0
0.9 0.6 0
1.2 0.6 0
1.5 0.6 0
1.8 0.6 0
2.1 0.6 0
2.4 0.6 0
2.7 0.6 0
3 0.6 0
3.3 0.6 0
3.6 0.6 0
3.9 0.6 0
4.2 0.6 0
4.5 0.6 0
4.8 0.6 0
5.1 0.6 0
5.4 0.6 0
5.7 0.6 0
6 0.6 0
6.3 0.6 0
6.6 0.6 0
6.9 0.6 0
7.2 0.6 0
7.5 0.6 0
7.8 0.6 0
8.1 0.6 0
8.4 0.6 0
8.7 0.6 0
9 0.6 0
9.3 0.6 0
9.6 0.6 0
9.9 0.6 0
10.2 0.6 0
10.5 0.6 0
10.8 0.6 0
11.1 0.6 0
11.4 0.6 0
11.7 0.6 0
12 0.6 0
12.3 0.6 0
12.6 0.6 0
12.9 0.6 0
13.2 0.6 0
13.5 0.6 0
13.8 0.6 0
14.1 0.6 0
14.4 0.6 0
14.7 0.6 0
15 0.6 0
15.3 0.6 0
15.6 0.6 0
15.9 0.6 0
16.2 0.6 0
16.5 0.6 0
16.8 0.6 0
17.1 0.6 0
17.4 0.6 0
17.7 0.6 0
18 0.6 0
18.3 0.6 0
18.6 0.6 0
18.9 0.6 0
19.2 0.6 0
19.5 0.6 0
19.8 0.6 0
20.1 0.6 0
20.4 0.6 0
20.7 0.6 0
21 0.6 0
21.3 0.6 0
21.6 0.6 0
21.9 0.6 0
22.2 0.6 0
22.5 0.6 0
22.8 0.6 0
23.1 0.6 0
23.4 0.6 0
23.7 0.6 0
24 0.6 0
24.3 0.6 0
24.6 0.6 0
24.9 0.6 0
25.2 0.6 0
25.5 0.6 0
25.8 0.6 0
26.1 0.6 0
26.4 0.6 0
26.7 0.6 0
27 0.6 0
27.3 0.6 0
27.6 0.6 0
27.9 0.6 0
28.2 0.6 0
28.5 0.6 0
28.8 0.6 0
29.1 0.6 0
29.4 0.6 0
29.7 0.6 0
30 0.6 0
0 0.7 0
0.3 0.7 0
0.6 0.7 0
0.9 0.7 0
1.2 0.7 0
1.5 0.7 0
1.8 0.7 0
2.1 0.7 0
2.4 0.7 0
2.7 0.7 0
3 0.7 0
3.3 0.7 0
3.6 0.7 0
3.9 0.7 0
4.2 0.7 0
4.5 0.7 0
4.8 0.7 0
5.1 0.7 0
5.4 0.7 0
5.7 0.7 0
6 0.7 0
6.3 0.7 0
6.6 0.7 0
6.9 0.7 0
7.2 0.7 0
7.5 0.7 0
7.8 0.7 0
8.1 0.7 0
8.4 0.7 0
8.7 0.7 0
9 0.7 0
9.3 0.7 0
9.6 0.7 0
9.9 0.7 0
10.2 0.7 0
10.5 0.7 0
10.8 0.7 0
11.1 0.7 0
11.4 0.7 0
11.7 0.7 0
12 0.7 0
12.3 0.7 0
12.6 0.7 0
12.9 0.7 0
13.2 0.7 0
13.5 0.7 0
13.8 0.7 0
14.1 0.7 0
14.4 0.7 0
14.7 0.7 0
15 0.7 0
15.3 0.7 0
15.6 0.7 0
15.9 0.7 0
16.2 0.7 0
16.5 0.7 0
16.8 0.7 0
17.1 0.7 0
17.4 0.7 0
17.7 0.7 0
18 0.7 0
18.3 0.7 0
18.6 0.7 0
18.9 0.7 0
19.2 0.7 0
19.5 0.7 0
19.8 0.7 0
20.1 0.7 0
20.4 0.7 0
20.7 0.7 0
21 0.7 0
21.3 0.7 0
21.6 0.7 0
21.9 0.7 0
22.2 0.7 0
22.5 0.7 0
22.8 0.7 0
23.1 0.7 0
23.4 0.7 0
23.7 0.7 0
24 0.7 0
24.3 0.7 0
24.6 0.7 0
24.9 0.7 0
25.2 0.7 0
25.5 0.7 0
25.8 0.7 0
26.1 0.7 0
26.4 0.7 0
26.7 0.7 0
27 0.7 0
27.3 0.7 0
27.6 0.7 0
27.9 0.7 0
28.2 0.7 0
28.5 0.7 0
28.8 0.7 0
29.1 0.7 0
29.4 0.7 0
29.7 0.7 0
30 0.7 0
0 0.8 0
0.3 0.8 0
0.6 0.8 0
0.9 0.8 0
1.2 0.8 0
1.5 0.8 0
1.8 0.8 0
2.1 0.8 0
2.4 0.8 0
2.7 0.8 0
3 0.8 0
3.3 0.8 0
3.6 0.8 0
3.9 0.8 0
4.2 0.8 0
4.5 0.8 0
4.8 0.8 0
5.1 0.8 0
5.4 0.8 0
5.7 0.8 0
6 0.8 0
6.3 0.8 0
6.6 0.8 0
6.9 0.8 0
7.2 0.8 0
7.5 0.8 0
7.8 0.8 0
8.1 0.8 0
8.4 0.8 0
8.7 0.8 0
9 0.8 0
9.3 0.8 0
9.6 0.8 0
9.9 0.8 0
10.2 0.8 0
10.5 0.8 0
10.8 0.8 0
11.1 0.8 0
11.4 0.8 0
11.7 0.8 0
12 0.8 0
12.3 0.8 0
12.6 0.8 0
12.9 0.8 0
13.2 0.8 0
13.5 0.8 0
13.8 0.8 0
14.1 0.8 0
14.4 0.8 0
14.7 0.8 0
15 0.8 0
15.3 0.8 0
15.6 0.8 0
15.9 0.8 0
16.2 0.8 0
16.5 0.8 0
16.8 0.8 0
17.1 0.8 0
17.4 0.8 0
17.7 0.8 0
18 0.8 0
18.3 0.8 0
18.6 0.8 0
18.9 0.8 0
19.2 0.8 0
19.5 0.8 0
19.8 0.8 0
20.1 0.8 0
20.4 0.8 0
20.7 0.8 0
21 0.8 0
21.3 0.8 0
21.6 0.8 0
21.9 0.8 0
22.2 0.8 0
22.5 0.8 0
22.8 0.8 0
23.1 0.8 0
23.4 0.8 0
23.7 0.8 0
24 0.8 0
24.3 0.8 0
24.6 0.8 0
24.9 0.8 0
25.2 0.8 0
25.5 0.8 0
25.8 0.8 0
26.1 0.8 0
26.4 0.8 0
26.7 0.8 0
27 0.8 0
27.3 0.8 0
27.6 0.8 0
27.9 0.8 0
28.2 0.8 0
28.5 0.8 0
28.8 0.8 0
29.1 0.8 0
29.4 0.8 0
29.7 0.8 0
30 0.8 0
0 0.9 0
0.3 0.9 0
0.6 0.9 0
0.9 0.9 0
1.2 0.9 0
1.5 0.9 0
1.8 0.9 0
2.1 0.9 0
2.4 0.9 0
2.7 0.9 0
3 0.9 0
3.3 0.9 0
3.6 0.9 0
3.9 0.9 0
4.2 0.9 0
4.5 0.9 0
4.8 0.9 0
5.1 0.9 0
5.4 0.9 0
5.7 0.9 0
6 0.9 0
6.3 0.9 0
6.6 0.9 0
6.9 0.9 0
7.2 0.9 0
7.5 0.9 0
7.8 0.9 0
8.1 0.9 0
8.4 0.9 0
8.7 0.9 0
9 0.9 0
9.3 0.9 0
9.6 0.9 0
9.9 0.9 0
10.2 0.9 0
10.5 0.9 0
10.8 0.9 0
11.1 0.9 0
11.4 0.9 0
11.7 0.9 0
12 0.9 0
12.3 0.9 0
12.6 0.9 0
12.9 0.9 0
13.2 0.9 0
13.5 0.9 0
13.8 0.9 0
14.1 0.9 0
14.4 0.9 0
14.7 0.9 0
15 0.9 0
15.3 0.9 0
15.6 0.9 0
15.9 0.9 0
16.2 0.9 0
16.5 0.9 0
16.8 0.9 0
17.1 0.9 0
17.4 0.9 0
17.7 0.9 0
18 0.9 0
18.3 0.9 0
18.6 0.9 0
18.9 0.9 0
19.2 0.9 0
19.5 0.9 0
19.8 0.9 0
20.1 0.9 0
20.4 0.9 0
20.7 0.9 0
21 0.9 0
21.3 0.9 0
21.6 0.9 0
21.9 0.9 0
22.2 0.9 0
22.5 0.9 0
22.8 0.9 0
23.1 0.9 0
23.4 0.9 0
23.7 0.9 0
24 0.9 0
24.3 0.9 0
24.6 0.9 0
24.9 0.9 0
25.2 0.9 0
25.5 0.9 0
25.8 0.9 0
26.1 0.9 0
26.4 0.9 0
26.7 0.9 0
27 0.9 0
27.3 0.9 0
27.6 0.9 0
27.9 0.9 0
28.2 0.9 0
28.5 0.9 0
28.8 0.9 0
29.1 0.9 0
29.4 0.9 0
29.7 0.9 0
30 0.9 0
0 1 0
0.3 1 0
0.6 1 0
0.9 1 0
1.2 1 0
1.5 1 0
1.8 1 0
2.1 1 0
2.4 1 0
2.7 1 0
3 1 0
3.3 1 0
3.6 1 0
3.9 1 0
4.2 1 0
4.5 1 0
4.8 1 0
5.1 1 0
5.4 1 0
5.7 1 0
6 1 0
6.3 1 0
6.6 1 0
6.9 1 0
7.2 1 0
7.5 1 0
7.8 1 0
8.1 1 0
8.4 1 0
8.7 1 0
9 1 0
9.3 1 0
9.6 1 0
9.9 1 0
10.2 1 0
10.5 1 0
10.8 1 0
11.1 1 0
11.4 1 0
11.7 1 0
12 1 0
12.3 1 0
12.6 1 0
12.9 1 0
13.2 1 0
13.5 1 0
13.8 1 0
14.1 1 0
14.4 1 0
14.7 1 0
15 1 0
15.3 1 0
15.6 1 0
15.9 1 0
16.2 1 0
16.5 1 0
16.8 1 0
17.1 1 0
17.4 1 0
17.7 1 0
18 1 0
18.3 1 0
18.6 1 0
18.9 1 0
19.2 1 0
19.5 1 0
19.8 1 0
20.1 1 0
20.4 1 0
20.7 1 0
21 1 0
21.3 1 0
21.6 1 0
21.9 1 0
22.2 1 0
22.5 1 0
22.8 1 0
23.1 1 0
23.4 1 0
23.7 1 0
24 1 0
24.3 1 0
24.6 1 0
24.9 1 0
25.2 1 0
25.5 1 0
25.8 1 0
26.1 1 0
26.4 1 0
26.7 1 0
27 1 0
27.3 1 0
27.6 1 0
27.9 1 0
28.2 1 0
28.5 1 0
28.8 1 0
29.1 1 0
29.4 1 0
29.7 1 0
30 1 0

POINT_DATA 1111

SCALARS v double
LOOKUP_TABLE default
0
0
0
0
0
0
0
0
0
0
0
0
0
0
0
0
0
0
0
0
0
0
0
0
0
0
0
0
0
0
0
0
0
0
0
0
0
0
0
0
0
0
0
0
0
0
0
0
0
0
0
0
0
0
0
0
0
0
0
0
0
0
0
0
0
0
0
0
0
0
0
0
0
0
0
0
0
0
0
0
0
0
0
0
0
0
0
0
0
0
0
0
0
0
0
0
0
0
0
0
0
-0.0359859
0.0359859
0.0367618
0.0309383
0.0247937
0.0193688
0.0148922
0.011356
0.00865024
0.00662567
0.0051316
0.00403564
0.00323091
0.00263585
0.00219045
0.00185166
0.00158907
0.0013814
0.00121382
0.00107595
0.000960513
0.000862361
0.000777796
0.00070413
0.00063937
0.000582011
0.000530894
0.00048511
0.000443932
0.000406769
0.000373135
0.000342623
0.00031489
0.000289641
0.000266615
0.000245576
0.000226301
0.000208575
0.000192185
0.000176924
0.000162595
0.000149017
0.000136038
0.000123542
0.00011146
9.97661e-05
8.84813e-05
7.76618e-05
6.73889e-05
5.77554e-05
4.88516e-05
4.07535e-05
3.35137e-05
2.71563e-05
2.16756e-05
1.7038e-05
1.31869e-05
1.00484e-05
7.53807e-06
5.56714e-06
4.04803e-06
2.89839e-06
2.044e-06
1.42037e-06
9.73211e-07
6.58208e-07
4.40157e-07
2.91808e-07
1.92586e-07
1.27318e-07
8.50653e-08
5.81167e-08
4.11494e-08
3.05656e-08
2.3981e-08
1.98426e-08
1.71645e-08
1.53435e-08
1.40184e-08
1.29731e-08
1.2078e-08
1.12577e-08
1.04735e-08
9.70586e-09
8.94707e-09
8.19833e-09
7.45829e-09
6.73583e-09
5.98786e-09
5.32935e-09
4.30447e-09
4.22606e-09
1.2701e-09
5.72125e-09
-1.44929e-08
2.34875e-08
-1.57686e-07
-3.99152e-08
-5.76169e-07
-2.57155e-06
-2.57155e-06
-0.0259716
0.0259716
0.03387
0.0318859
0.0277093
0.0232684
0.0192107
0.0157606
0.0129474
0.0107074
0.008943
0.00755456
0.00645543
0.00557602
0.00486305
0.00427677
0.0037879
0.00337491
0.00302193
0.00271717
0.00245171
0.00221876
0.00201304
0.00183039
0.00166746
0.00152156
0.00139044
0.00127226
0.00116546
0.00106873
0.000980927
0.000901101
0.000828413
0.000762128
0.000701589
0.000646192
0.000595365
0.000548556
0.000505224
0.000464839
0.000426901
0.000390956
0.000356621
0.000323608
0.000291739
0.000260953
0.000231301
0.000202921
0.000176016
0.000150818
0.00012755
0.000106401
8.75006e-05
7.09064e-05
5.66e-05
4.44923e-05
3.44352e-05
2.62362e-05
1.96759e-05
1.45234e-05
1.05509e-05
7.54378e-06
5.30865e-06
3.67716e-06
2.50752e-06
1.68389e-06
1.11414e-06
7.26963e-07
4.68463e-07
2.9889e-07
1.89586e-07
1.20342e-07
7.72113e-08
5.07697e-08
3.47749e-08
2.51655e-08
1.93655e-08
1.57982e-08
1.3519e-08
1.1965e-08
1.08011e-08
9.83351e-09
8.96109e-09
8.13203e-09
7.32435e-09
6.53404e-09
5.75905e-09
5.00303e-09
4.23606e-09
3.54635e-09
2.49601e-09
2.47573e-09
-1.07722e-09
4.95011e-09
-2.596e-08
4.09125e-08
-3.13764e-07
1.88868e-07
-3.96342e-06
-6.81878e-06
-6.81878e-06
-0.0142106
0.0142106
0.0209505
0.020866
0.0189119
0.0164968
0.0141327
0.0120299
0.0102539
0.00879503
0.00761043
0.0066486
0.00586164
0.00520983
0.00466223
0.00419558
0.00379263
0.00344067
0.00313029
0.00285442
0.00260767
0.00238586
0.00218567
0.0020044
0.00183983
0.00169011
0.00155365
0.00142907
0.00131521
0.00121102
0.00111559
0.00102811
0.000947873
0.000874216
0.000806546
0.000744296
0.000686919
0.000633874
0.000584621
0.000538625
0.000495371
0.000454382
0.000415248
0.000377649
0.000341376
0.000306341
0.000272569
0.000240189
0.0002094
0.000180444
0.000153566
0.000128982
0.000106853
8.72686e-05
7.02366e-05
5.56883e-05
4.34855e-05
3.34361e-05
2.53107e-05
1.88606e-05
1.38333e-05
9.98579e-06
7.09421e-06
4.95998e-06
3.41286e-06
2.31126e-06
1.54078e-06
1.01141e-06
6.54123e-07
4.17229e-07
2.62935e-07
1.64217e-07
1.02176e-07
6.38659e-08
4.05972e-08
2.66318e-08
1.82767e-08
1.32471e-08
1.01622e-08
8.18852e-09
6.82288e-09
5.76976e-09
4.87027e-09
4.04171e-09
3.24771e-09
2.47847e-09
1.72773e-09
1.00207e-09
2.71972e-10
-4.66796e-10
-1.3963e-09
-1.63893e-09
-4.65917e-09
1.41597e-09
-2.92199e-08
4.66338e-08
-3.41107e-07
3.77944e-07
-5.20127e-06
-7.76225e-06
-7.76225e-06
-0.00447522
0.00447522
0.00693975
0.00706184
0.00650816
0.00576934
0.00502382
0.00434763
0.00376779
0.00328506
0.00288798
0.00256121
0.00229
0.00206192
0.00186722
0.00169857
0.00155055
0.00141921
0.00130161
0.00119558
0.00109947
0.001012
0.000932134
0.000859053
0.000792058
0.00073056
0.000674047
0.000622072
0.00057424
0.000530197
0.000489626
0.000452244
0.00041779
0.000386025
0.000356726
0.000329677
0.000304665
0.000281476
0.000259894
0.000239702
0.000220688
0.000202655
0.000185431
0.000168881
0.000152913
0.000137485
0.000122606
0.000108324
9.47228e-05
8.19024e-05
6.9968e-05
5.90144e-05
4.91148e-05
4.03132e-05
3.26199e-05
2.60118e-05
2.0436e-05
1.58147e-05
1.20529e-05
9.04547e-06
6.68397e-06
4.86263e-06
3.48277e-06
2.45579e-06
1.70485e-06
1.16532e-06
7.84396e-07
5.2009e-07
3.39832e-07
2.1898e-07
1.39321e-07
8.76998e-08
5.48172e-08
3.42313e-08
2.15579e-08
1.38139e-08
9.02984e-09
6.00463e-09
4.02971e-09
2.67237e-09
1.65471e-09
8.08763e-10
2.76187e-11
-7.28813e-10
-1.46539e-09
-2.18354e-09
-2.88262e-09
-3.5607e-09
-4.22346e-09
-4.84787e-09
-5.57664e-09
-5.93812e-09
-7.60966e-09
-4.82436e-09
-1.83798e-08
1.75255e-08
-1.54964e-07
1.96264e-07
-2.34967e-06
-3.42407e-06
-3.42407e-06
0.00447519
-0.00447519
-0.00693969
-0.00706177
-0.00650808
-0.00576926
-0.00502374
-0.00434756
-0.00376772
-0.003285
-0.00288791
-0.00256115
-0.00228994
-0.00206186
-0.00186716
-0.0016985
-0.00155049
-0.00141915
-0.00130155
-0.00119552
-0.00109941
-0.00101194
-0.000932079
-0.000858998
-0.000792005
-0.000730508
-0.000673997
-0.000622024
-0.000574193
-0.000530151
-0.000489583
-0.000452201
-0.000417748
-0.000385984
-0.000356686
-0.000329637
-0.000304625
-0.000281436
-0.000259854
-0.000239662
-0.000220648
-0.000202614
-0.00018539
-0.000168839
-0.00015287
-0.000137443
-0.000122563
-0.000108281
-9.46796e-05
-8.18595e-05
-6.99255e-05
-5.89726e-05
-4.90739e-05
-4.02734e-05
-3.25813e-05
-2.59747e-05
-2.04004e-05
-1.57808e-05
-1.20208e-05
-9.01515e-06
-6.65554e-06
-4.83612e-06
-3.45819e-06
-2.43313e-06
-1.68408e-06
-1.14642e-06
-7.67347e-07
-5.04868e-07
-3.26415e-07
-2.07331e-07
-1.29375e-07
-7.93361e-08
-4.7847e-08
-2.84022e-08
-1.65902e-08
-9.60754e-09
-5.71499e-09
-3.73968e-09
-2.88823e-09
-2.66877e-09
-2.81029e-09
-3.17017e-09
-3.66272e-09
-4.2332e-09
-4.84379e-09
-5.46832e-09
-6.09092e-09
-6.70451e-09
-7.28905e-09
-7.85839e-09
-8.35068e-09
-9.09306e-09
-8.60972e-09
-1.18668e-08
1.32315e-09
-3.39275e-08
1.40085e-07
-2.08282e-07
2.34041e-06
3.4229e-06
3.4229e-06
0.0142106
-0.0142106
-0.0209504
-0.0208659
-0.0189118
-0.0164968
-0.0141326
-0.0120298
-0.0102538
-0.00879497
-0.00761037
-0.00664855
-0.00586159
-0.00520977
-0.00466218
-0.00419552
-0.00379257
-0.00344062
-0.00313023
-0.00285436
-0.00260762
-0.00238581
-0.00218562
-0.00200435
-0.00183979
-0.00169007
-0.0015536
-0.00142903
-0.00131517
-0.00121098
-0.00111555
-0.00102807
-0.000947834
-0.000874178
-0.000806508
-0.000744258
-0.000686881
-0.000633836
-0.000584583
-0.000538587
-0.000495332
-0.000454342
-0.000415207
-0.000377608
-0.000341335
-0.000306299
-0.000272526
-0.000240146
-0.000209357
-0.000180401
-0.000153523
-0.000128939
-0.000106811
-8.72271e-05
-7.01961e-05
-5.56489e-05
-4.34473e-05
-3.33993e-05
-2.52754e-05
-1.88269e-05
-1.38013e-05
-9.95545e-06
-7.06561e-06
-4.93313e-06
-3.38775e-06
-2.28788e-06
-1.51912e-06
-9.9146e-07
-6.35872e-07
-4.00671e-07
-2.48054e-07
-1.50977e-07
-9.0487e-08
-5.35401e-08
-3.131e-08
-1.81892e-08
-1.07607e-08
-6.81202e-09
-4.89241e-09
-4.09981e-09
-3.92537e-09
-4.09955e-09
-4.47123e-09
-4.95242e-09
-5.49e-09
-6.05261e-09
-6.62072e-09
-7.19066e-09
-7.71661e-09
-8.26022e-09
-8.55608e-09
-9.67531e-09
-7.51537e-09
-1.5262e-08
1.58708e-08
-6.04365e-08
3.29199e-07
-3.87971e-07
5.1938e-06
7.76119e-06
7.76119e-06
0.0259716
-0.0259716
-0.0338699
-0.0318858
-0.0277092
-0.0232683
-0.0192106
-0.0157606
-0.0129474
-0.0107074
-0.00894295
-0.00755451
-0.00645538
-0.00557597
-0.00486301
-0.00427673
-0.00378785
-0.00337486
-0.00302189
-0.00271712
-0.00245167
-0.00221872
-0.002013
-0.00183035
-0.00166742
-0.00152152
-0.0013904
-0.00127222
-0.00116543
-0.00106869
-0.000980891
-0.000901066
-0.000828378
-0.000762093
-0.000701554
-0.000646156
-0.00059533
-0.000548521
-0.000505187
-0.000464802
-0.000426864
-0.000390918
-0.000356582
-0.000323568
-0.000291698
-0.000260912
-0.000231258
-0.000202878
-0.000175973
-0.000150774
-0.000127505
-0.000106356
-8.74562e-05
-7.08622e-05
-5.65562e-05
-4.44492e-05
-3.43928e-05
-2.61947e-05
-1.96354e-05
-1.44841e-05
-1.05128e-05
-7.50708e-06
-5.27337e-06
-3.64332e-06
-2.47517e-06
-1.65302e-06
-1.08477e-06
-6.99092e-07
-4.421e-07
-2.74045e-07
-1.6628e-07
-9.86164e-08
-5.71256e-08
-3.23222e-08
-1.76854e-08
-9.12688e-09
-4.36963e-09
-1.98207e-09
-9.92533e-10
-7.471e-10
-8.71605e-10
-1.18915e-09
-1.61608e-09
-2.10787e-09
-2.63681e-09
-3.18676e-09
-3.74303e-09
-4.31191e-09
-4.8306e-09
-5.38921e-09
-5.59964e-09
-6.91102e-09
-4.37758e-09
-1.2513e-08
1.85962e-08
-4.91861e-08
3.05718e-07
-1.94885e-07
3.9593e-06
6.8179e-06
6.8179e-06
0.0359858
-0.0359858
-0.0367618
-0.0309382
-0.0247936
-0.0193687
-0.0148922
-0.011356
-0.00865021
-0.00662564
-0.00513157
-0.0040356
-0.00323088
-0.00263582
-0.00219041
-0.00185162
-0.00158903
-0.00138137
-0.00121378
-0.00107591
-0.000960478
-0.000862325
-0.000777761
-0.000704095
-0.000639335
-0.000581976
-0.000530859
-0.000485076
-0.000443898
-0.000406735
-0.000373101
-0.000342589
-0.000314856
-0.000289607
-0.000266581
-0.000245542
-0.000226267
-0.00020854
-0.00019215
-0.000176889
-0.000162559
-0.00014898
-0.000136
-0.000123504
-0.000111421
-9.9726e-05
-8.84401e-05
-7.76195e-05
-6.73456e-05
-5.77112e-05
-4.88066e-05
-4.07078e-05
-3.34675e-05
-2.71097e-05
-2.16288e-05
-1.69912e-05
-1.31402e-05
-1.00021e-05
-7.49224e-06
-5.52199e-06
-4.00369e-06
-2.85499e-06
-2.00165e-06
-1.37914e-06
-9.33171e-07
-6.19408e-07
-4.02634e-07
-2.55587e-07
-1.5768e-07
-9.37279e-08
-5.27785e-08
-2.71023e-08
-1.13521e-08
-1.94457e-09
2.99971e-09
5.31875e-09
6.35263e-09
6.63838e-09
6.48263e-09
6.08925e-09
5.58266e-09
5.01814e-09
4.41969e-09
3.80037e-09
3.16921e-09
2.53142e-09
1.89224e-09
1.24698e-09
6.26269e-10
3.4196e-11
-1.88033e-10
-1.42156e-09
1.95716e-10
-5.26702e-09
1.34666e-08
-2.52877e-08
1.55229e-07
3.79911e-08
5.74939e-07
2.57086e-06
2.57086e-06
0
0
0
0
0
0
0
0
0
0
0
0
0
0
0
0
0
0
0
0
0
0
0
0
0
0
0
0
0
0
0
0
0
0
0
0
0
0
0
0
0
0
0
0
0
0
0
0
0
0
0
0
0
0
0
0
0
0
0
0
0
0
0
0
0
0
0
0
0
0
0
0
0
0
0
0
0
0
0
0
0
0
0
0
0
0
0
0
0
0
0
0
0
0
0
0
0
0
0
0
0
0
0
0
0
0
0
0
0
0
0
0
0
0
0
0
0
0
0
0
0
0
0
0
0
0
0
0
0
0
0
0
0
0
0
0
0
0
0
0
0
0
0
0
0
0
0
0
0
0
0
0
0
0
0
0
0
0
0
0
0
0
0
0
0
0
0
0
0
0
0
0
0
0
0
0
0
0
0
0
0
0
0
0
0
0
0
0
0
0
0
0
0
0
0
0
0
0
0
0
0
0
