# vtk DataFile Version 2.0
FlowField
ASCII
DATASET STRUCTURED_GRID
DIMENSIONS 102 13 1 
POINTS 1326 double
0 0 0
0.3 0 0
0.6 0 0
0.9 0 0
1.2 0 0
1.5 0 0
1.8 0 0
2.1 0 0
2.4 0 0
2.7 0 0
3 0 0
3.3 0 0
3.6 0 0
3.9 0 0
4.2 0 0
4.5 0 0
4.8 0 0
5.1 0 0
5.4 0 0
5.7 0 0
6 0 0
6.3 0 0
6.6 0 0
6.9 0 0
7.2 0 0
7.5 0 0
7.8 0 0
8.1 0 0
8.4 0 0
8.7 0 0
9 0 0
9.3 0 0
9.6 0 0
9.9 0 0
10.2 0 0
10.5 0 0
10.8 0 0
11.1 0 0
11.4 0 0
11.7 0 0
12 0 0
12.3 0 0
12.6 0 0
12.9 0 0
13.2 0 0
13.5 0 0
13.8 0 0
14.1 0 0
14.4 0 0
14.7 0 0
15 0 0
15.3 0 0
15.6 0 0
15.9 0 0
16.2 0 0
16.5 0 0
16.8 0 0
17.1 0 0
17.4 0 0
17.7 0 0
18 0 0
18.3 0 0
18.6 0 0
18.9 0 0
19.2 0 0
19.5 0 0
19.8 0 0
20.1 0 0
20.4 0 0
20.7 0 0
21 0 0
21.3 0 0
21.6 0 0
21.9 0 0
22.2 0 0
22.5 0 0
22.8 0 0
23.1 0 0
23.4 0 0
23.7 0 0
24 0 0
24.3 0 0
24.6 0 0
24.9 0 0
25.2 0 0
25.5 0 0
25.8 0 0
26.1 0 0
26.4 0 0
26.7 0 0
27 0 0
27.3 0 0
27.6 0 0
27.9 0 0
28.2 0 0
28.5 0 0
28.8 0 0
29.1 0 0
29.4 0 0
29.7 0 0
30 0 0
30.3 0 0
0 0.1 0
0.3 0.1 0
0.6 0.1 0
0.9 0.1 0
1.2 0.1 0
1.5 0.1 0
1.8 0.1 0
2.1 0.1 0
2.4 0.1 0
2.7 0.1 0
3 0.1 0
3.3 0.1 0
3.6 0.1 0
3.9 0.1 0
4.2 0.1 0
4.5 0.1 0
4.8 0.1 0
5.1 0.1 0
5.4 0.1 0
5.7 0.1 0
6 0.1 0
6.3 0.1 0
6.6 0.1 0
6.9 0.1 0
7.2 0.1 0
7.5 0.1 0
7.8 0.1 0
8.1 0.1 0
8.4 0.1 0
8.7 0.1 0
9 0.1 0
9.3 0.1 0
9.6 0.1 0
9.9 0.1 0
10.2 0.1 0
10.5 0.1 0
10.8 0.1 0
11.1 0.1 0
11.4 0.1 0
11.7 0.1 0
12 0.1 0
12.3 0.1 0
12.6 0.1 0
12.9 0.1 0
13.2 0.1 0
13.5 0.1 0
13.8 0.1 0
14.1 0.1 0
14.4 0.1 0
14.7 0.1 0
15 0.1 0
15.3 0.1 0
15.6 0.1 0
15.9 0.1 0
16.2 0.1 0
16.5 0.1 0
16.8 0.1 0
17.1 0.1 0
17.4 0.1 0
17.7 0.1 0
18 0.1 0
18.3 0.1 0
18.6 0.1 0
18.9 0.1 0
19.2 0.1 0
19.5 0.1 0
19.8 0.1 0
20.1 0.1 0
20.4 0.1 0
20.7 0.1 0
21 0.1 0
21.3 0.1 0
21.6 0.1 0
21.9 0.1 0
22.2 0.1 0
22.5 0.1 0
22.8 0.1 0
23.1 0.1 0
23.4 0.1 0
23.7 0.1 0
24 0.1 0
24.3 0.1 0
24.6 0.1 0
24.9 0.1 0
25.2 0.1 0
25.5 0.1 0
25.8 0.1 0
26.1 0.1 0
26.4 0.1 0
26.7 0.1 0
27 0.1 0
27.3 0.1 0
27.6 0.1 0
27.9 0.1 0
28.2 0.1 0
28.5 0.1 0
28.8 0.1 0
29.1 0.1 0
29.4 0.1 0
29.7 0.1 0
30 0.1 0
30.3 0.1 0
0 0.2 0
0.3 0.2 0
0.6 0.2 0
0.9 0.2 0
1.2 0.2 0
1.5 0.2 0
1.8 0.2 0
2.1 0.2 0
2.4 0.2 0
2.7 0.2 0
3 0.2 0
3.3 0.2 0
3.6 0.2 0
3.9 0.2 0
4.2 0.2 0
4.5 0.2 0
4.8 0.2 0
5.1 0.2 0
5.4 0.2 0
5.7 0.2 0
6 0.2 0
6.3 0.2 0
6.6 0.2 0
6.9 0.2 0
7.2 0.2 0
7.5 0.2 0
7.8 0.2 0
8.1 0.2 0
8.4 0.2 0
8.7 0.2 0
9 0.2 0
9.3 0.2 0
9.6 0.2 0
9.9 0.2 0
10.2 0.2 0
10.5 0.2 0
10.8 0.2 0
11.1 0.2 0
11.4 0.2 0
11.7 0.2 0
12 0.2 0
12.3 0.2 0
12.6 0.2 0
12.9 0.2 0
13.2 0.2 0
13.5 0.2 0
13.8 0.2 0
14.1 0.2 0
14.4 0.2 0
14.7 0.2 0
15 0.2 0
15.3 0.2 0
15.6 0.2 0
15.9 0.2 0
16.2 0.2 0
16.5 0.2 0
16.8 0.2 0
17.1 0.2 0
17.4 0.2 0
17.7 0.2 0
18 0.2 0
18.3 0.2 0
18.6 0.2 0
18.9 0.2 0
19.2 0.2 0
19.5 0.2 0
19.8 0.2 0
20.1 0.2 0
20.4 0.2 0
20.7 0.2 0
21 0.2 0
21.3 0.2 0
21.6 0.2 0
21.9 0.2 0
22.2 0.2 0
22.5 0.2 0
22.8 0.2 0
23.1 0.2 0
23.4 0.2 0
23.7 0.2 0
24 0.2 0
24.3 0.2 0
24.6 0.2 0
24.9 0.2 0
25.2 0.2 0
25.5 0.2 0
25.8 0.2 0
26.1 0.2 0
26.4 0.2 0
26.7 0.2 0
27 0.2 0
27.3 0.2 0
27.6 0.2 0
27.9 0.2 0
28.2 0.2 0
28.5 0.2 0
28.8 0.2 0
29.1 0.2 0
29.4 0.2 0
29.7 0.2 0
30 0.2 0
30.3 0.2 0
0 0.3 0
0.3 0.3 0
0.6 0.3 0
0.9 0.3 0
1.2 0.3 0
1.5 0.3 0
1.8 0.3 0
2.1 0.3 0
2.4 0.3 0
2.7 0.3 0
3 0.3 0
3.3 0.3 0
3.6 0.3 0
3.9 0.3 0
4.2 0.3 0
4.5 0.3 0
4.8 0.3 0
5.1 0.3 0
5.4 0.3 0
5.7 0.3 0
6 0.3 0
6.3 0.3 0
6.6 0.3 0
6.9 0.3 0
7.2 0.3 0
7.5 0.3 0
7.8 0.3 0
8.1 0.3 0
8.4 0.3 0
8.7 0.3 0
9 0.3 0
9.3 0.3 0
9.6 0.3 0
9.9 0.3 0
10.2 0.3 0
10.5 0.3 0
10.8 0.3 0
11.1 0.3 0
11.4 0.3 0
11.7 0.3 0
12 0.3 0
12.3 0.3 0
12.6 0.3 0
12.9 0.3 0
13.2 0.3 0
13.5 0.3 0
13.8 0.3 0
14.1 0.3 0
14.4 0.3 0
14.7 0.3 0
15 0.3 0
15.3 0.3 0
15.6 0.3 0
15.9 0.3 0
16.2 0.3 0
16.5 0.3 0
16.8 0.3 0
17.1 0.3 0
17.4 0.3 0
17.7 0.3 0
18 0.3 0
18.3 0.3 0
18.6 0.3 0
18.9 0.3 0
19.2 0.3 0
19.5 0.3 0
19.8 0.3 0
20.1 0.3 0
20.4 0.3 0
20.7 0.3 0
21 0.3 0
21.3 0.3 0
21.6 0.3 0
21.9 0.3 0
22.2 0.3 0
22.5 0.3 0
22.8 0.3 0
23.1 0.3 0
23.4 0.3 0
23.7 0.3 0
24 0.3 0
24.3 0.3 0
24.6 0.3 0
24.9 0.3 0
25.2 0.3 0
25.5 0.3 0
25.8 0.3 0
26.1 0.3 0
26.4 0.3 0
26.7 0.3 0
27 0.3 0
27.3 0.3 0
27.6 0.3 0
27.9 0.3 0
28.2 0.3 0
28.5 0.3 0
28.8 0.3 0
29.1 0.3 0
29.4 0.3 0
29.7 0.3 0
30 0.3 0
30.3 0.3 0
0 0.4 0
0.3 0.4 0
0.6 0.4 0
0.9 0.4 0
1.2 0.4 0
1.5 0.4 0
1.8 0.4 0
2.1 0.4 0
2.4 0.4 0
2.7 0.4 0
3 0.4 0
3.3 0.4 0
3.6 0.4 0
3.9 0.4 0
4.2 0.4 0
4.5 0.4 0
4.8 0.4 0
5.1 0.4 0
5.4 0.4 0
5.7 0.4 0
6 0.4 0
6.3 0.4 0
6.6 0.4 0
6.9 0.4 0
7.2 0.4 0
7.5 0.4 0
7.8 0.4 0
8.1 0.4 0
8.4 0.4 0
8.7 0.4 0
9 0.4 0
9.3 0.4 0
9.6 0.4 0
9.9 0.4 0
10.2 0.4 0
10.5 0.4 0
10.8 0.4 0
11.1 0.4 0
11.4 0.4 0
11.7 0.4 0
12 0.4 0
12.3 0.4 0
12.6 0.4 0
12.9 0.4 0
13.2 0.4 0
13.5 0.4 0
13.8 0.4 0
14.1 0.4 0
14.4 0.4 0
14.7 0.4 0
15 0.4 0
15.3 0.4 0
15.6 0.4 0
15.9 0.4 0
16.2 0.4 0
16.5 0.4 0
16.8 0.4 0
17.1 0.4 0
17.4 0.4 0
17.7 0.4 0
18 0.4 0
18.3 0.4 0
18.6 0.4 0
18.9 0.4 0
19.2 0.4 0
19.5 0.4 0
19.8 0.4 0
20.1 0.4 0
20.4 0.4 0
20.7 0.4 0
21 0.4 0
21.3 0.4 0
21.6 0.4 0
21.9 0.4 0
22.2 0.4 0
22.5 0.4 0
22.8 0.4 0
23.1 0.4 0
23.4 0.4 0
23.7 0.4 0
24 0.4 0
24.3 0.4 0
24.6 0.4 0
24.9 0.4 0
25.2 0.4 0
25.5 0.4 0
25.8 0.4 0
26.1 0.4 0
26.4 0.4 0
26.7 0.4 0
27 0.4 0
27.3 0.4 0
27.6 0.4 0
27.9 0.4 0
28.2 0.4 0
28.5 0.4 0
28.8 0.4 0
29.1 0.4 0
29.4 0.4 0
29.7 0.4 0
30 0.4 0
30.3 0.4 0
0 0.5 0
0.3 0.5 0
0.6 0.5 0
0.9 0.5 0
1.2 0.5 0
1.5 0.5 0
1.8 0.5 0
2.1 0.5 0
2.4 0.5 0
2.7 0.5 0
3 0.5 0
3.3 0.5 0
3.6 0.5 0
3.9 0.5 0
4.2 0.5 0
4.5 0.5 0
4.8 0.5 0
5.1 0.5 0
5.4 0.5 0
5.7 0.5 0
6 0.5 0
6.3 0.5 0
6.6 0.5 0
6.9 0.5 0
7.2 0.5 0
7.5 0.5 0
7.8 0.5 0
8.1 0.5 0
8.4 0.5 0
8.7 0.5 0
9 0.5 0
9.3 0.5 0
9.6 0.5 0
9.9 0.5 0
10.2 0.5 0
10.5 0.5 0
10.8 0.5 0
11.1 0.5 0
11.4 0.5 0
11.7 0.5 0
12 0.5 0
12.3 0.5 0
12.6 0.5 0
12.9 0.5 0
13.2 0.5 0
13.5 0.5 0
13.8 0.5 0
14.1 0.5 0
14.4 0.5 0
14.7 0.5 0
15 0.5 0
15.3 0.5 0
15.6 0.5 0
15.9 0.5 0
16.2 0.5 0
16.5 0.5 0
16.8 0.5 0
17.1 0.5 0
17.4 0.5 0
17.7 0.5 0
18 0.5 0
18.3 0.5 0
18.6 0.5 0
18.9 0.5 0
19.2 0.5 0
19.5 0.5 0
19.8 0.5 0
20.1 0.5 0
20.4 0.5 0
20.7 0.5 0
21 0.5 0
21.3 0.5 0
21.6 0.5 0
21.9 0.5 0
22.2 0.5 0
22.5 0.5 0
22.8 0.5 0
23.1 0.5 0
23.4 0.5 0
23.7 0.5 0
24 0.5 0
24.3 0.5 0
24.6 0.5 0
24.9 0.5 0
25.2 0.5 0
25.5 0.5 0
25.8 0.5 0
26.1 0.5 0
26.4 0.5 0
26.7 0.5 0
27 0.5 0
27.3 0.5 0
27.6 0.5 0
27.9 0.5 0
28.2 0.5 0
28.5 0.5 0
28.8 0.5 0
29.1 0.5 0
29.4 0.5 0
29.7 0.5 0
30 0.5 0
30.3 0.5 0
0 0.6 0
0.3 0.6 0
0.6 0.6 0
0.9 0.6 0
1.2 0.6 0
1.5 0.6 0
1.8 0.6 0
2.1 0.6 0
2.4 0.6 0
2.7 0.6 0
3 0.6 0
3.3 0.6 0
3.6 0.6 0
3.9 0.6 0
4.2 0.6 0
4.5 0.6 0
4.8 0.6 0
5.1 0.6 0
5.4 0.6 0
5.7 0.6 0
6 0.6 0
6.3 0.6 0
6.6 0.6 0
6.9 0.6 0
7.2 0.6 0
7.5 0.6 0
7.8 0.6 0
8.1 0.6 0
8.4 0.6 0
8.7 0.6 0
9 0.6 0
9.3 0.6 0
9.6 0.6 0
9.9 0.6 0
10.2 0.6 0
10.5 0.6 0
10.8 0.6 0
11.1 0.6 0
11.4 0.6 0
11.7 0.6 0
12 0.6 0
12.3 0.6 0
12.6 0.6 0
12.9 0.6 0
13.2 0.6 0
13.5 0.6 0
13.8 0.6 0
14.1 0.6 0
14.4 0.6 0
14.7 0.6 0
15 0.6 0
15.3 0.6 0
15.6 0.6 0
15.9 0.6 0
16.2 0.6 0
16.5 0.6 0
16.8 0.6 0
17.1 0.6 0
17.4 0.6 0
17.7 0.6 0
18 0.6 0
18.3 0.6 0
18.6 0.6 0
18.9 0.6 0
19.2 0.6 0
19.5 0.6 0
19.8 0.6 0
20.1 0.6 0
20.4 0.6 0
20.7 0.6 0
21 0.6 0
21.3 0.6 0
21.6 0.6 0
21.9 0.6 0
22.2 0.6 0
22.5 0.6 0
22.8 0.6 0
23.1 0.6 0
23.4 0.6 0
23.7 0.6 0
24 0.6 0
24.3 0.6 0
24.6 0.6 0
24.9 0.6 0
25.2 0.6 0
25.5 0.6 0
25.8 0.6 0
26.1 0.6 0
26.4 0.6 0
26.7 0.6 0
27 0.6 0
27.3 0.6 0
27.6 0.6 0
27.9 0.6 0
28.2 0.6 0
28.5 0.6 0
28.8 0.6 0
29.1 0.6 0
29.4 0.6 0
29.7 0.6 0
30 0.6 0
30.3 0.6 0
0 0.7 0
0.3 0.7 0
0.6 0.7 0
0.9 0.7 0
1.2 0.7 0
1.5 0.7 0
1.8 0.7 0
2.1 0.7 0
2.4 0.7 0
2.7 0.7 0
3 0.7 0
3.3 0.7 0
3.6 0.7 0
3.9 0.7 0
4.2 0.7 0
4.5 0.7 0
4.8 0.7 0
5.1 0.7 0
5.4 0.7 0
5.7 0.7 0
6 0.7 0
6.3 0.7 0
6.6 0.7 0
6.9 0.7 0
7.2 0.7 0
7.5 0.7 0
7.8 0.7 0
8.1 0.7 0
8.4 0.7 0
8.7 0.7 0
9 0.7 0
9.3 0.7 0
9.6 0.7 0
9.9 0.7 0
10.2 0.7 0
10.5 0.7 0
10.8 0.7 0
11.1 0.7 0
11.4 0.7 0
11.7 0.7 0
12 0.7 0
12.3 0.7 0
12.6 0.7 0
12.9 0.7 0
13.2 0.7 0
13.5 0.7 0
13.8 0.7 0
14.1 0.7 0
14.4 0.7 0
14.7 0.7 0
15 0.7 0
15.3 0.7 0
15.6 0.7 0
15.9 0.7 0
16.2 0.7 0
16.5 0.7 0
16.8 0.7 0
17.1 0.7 0
17.4 0.7 0
17.7 0.7 0
18 0.7 0
18.3 0.7 0
18.6 0.7 0
18.9 0.7 0
19.2 0.7 0
19.5 0.7 0
19.8 0.7 0
20.1 0.7 0
20.4 0.7 0
20.7 0.7 0
21 0.7 0
21.3 0.7 0
21.6 0.7 0
21.9 0.7 0
22.2 0.7 0
22.5 0.7 0
22.8 0.7 0
23.1 0.7 0
23.4 0.7 0
23.7 0.7 0
24 0.7 0
24.3 0.7 0
24.6 0.7 0
24.9 0.7 0
25.2 0.7 0
25.5 0.7 0
25.8 0.7 0
26.1 0.7 0
26.4 0.7 0
26.7 0.7 0
27 0.7 0
27.3 0.7 0
27.6 0.7 0
27.9 0.7 0
28.2 0.7 0
28.5 0.7 0
28.8 0.7 0
29.1 0.7 0
29.4 0.7 0
29.7 0.7 0
30 0.7 0
30.3 0.7 0
0 0.8 0
0.3 0.8 0
0.6 0.8 0
0.9 0.8 0
1.2 0.8 0
1.5 0.8 0
1.8 0.8 0
2.1 0.8 0
2.4 0.8 0
2.7 0.8 0
3 0.8 0
3.3 0.8 0
3.6 0.8 0
3.9 0.8 0
4.2 0.8 0
4.5 0.8 0
4.8 0.8 0
5.1 0.8 0
5.4 0.8 0
5.7 0.8 0
6 0.8 0
6.3 0.8 0
6.6 0.8 0
6.9 0.8 0
7.2 0.8 0
7.5 0.8 0
7.8 0.8 0
8.1 0.8 0
8.4 0.8 0
8.7 0.8 0
9 0.8 0
9.3 0.8 0
9.6 0.8 0
9.9 0.8 0
10.2 0.8 0
10.5 0.8 0
10.8 0.8 0
11.1 0.8 0
11.4 0.8 0
11.7 0.8 0
12 0.8 0
12.3 0.8 0
12.6 0.8 0
12.9 0.8 0
13.2 0.8 0
13.5 0.8 0
13.8 0.8 0
14.1 0.8 0
14.4 0.8 0
14.7 0.8 0
15 0.8 0
15.3 0.8 0
15.6 0.8 0
15.9 0.8 0
16.2 0.8 0
16.5 0.8 0
16.8 0.8 0
17.1 0.8 0
17.4 0.8 0
17.7 0.8 0
18 0.8 0
18.3 0.8 0
18.6 0.8 0
18.9 0.8 0
19.2 0.8 0
19.5 0.8 0
19.8 0.8 0
20.1 0.8 0
20.4 0.8 0
20.7 0.8 0
21 0.8 0
21.3 0.8 0
21.6 0.8 0
21.9 0.8 0
22.2 0.8 0
22.5 0.8 0
22.8 0.8 0
23.1 0.8 0
23.4 0.8 0
23.7 0.8 0
24 0.8 0
24.3 0.8 0
24.6 0.8 0
24.9 0.8 0
25.2 0.8 0
25.5 0.8 0
25.8 0.8 0
26.1 0.8 0
26.4 0.8 0
26.7 0.8 0
27 0.8 0
27.3 0.8 0
27.6 0.8 0
27.9 0.8 0
28.2 0.8 0
28.5 0.8 0
28.8 0.8 0
29.1 0.8 0
29.4 0.8 0
29.7 0.8 0
30 0.8 0
30.3 0.8 0
0 0.9 0
0.3 0.9 0
0.6 0.9 0
0.9 0.9 0
1.2 0.9 0
1.5 0.9 0
1.8 0.9 0
2.1 0.9 0
2.4 0.9 0
2.7 0.9 0
3 0.9 0
3.3 0.9 0
3.6 0.9 0
3.9 0.9 0
4.2 0.9 0
4.5 0.9 0
4.8 0.9 0
5.1 0.9 0
5.4 0.9 0
5.7 0.9 0
6 0.9 0
6.3 0.9 0
6.6 0.9 0
6.9 0.9 0
7.2 0.9 0
7.5 0.9 0
7.8 0.9 0
8.1 0.9 0
8.4 0.9 0
8.7 0.9 0
9 0.9 0
9.3 0.9 0
9.6 0.9 0
9.9 0.9 0
10.2 0.9 0
10.5 0.9 0
10.8 0.9 0
11.1 0.9 0
11.4 0.9 0
11.7 0.9 0
12 0.9 0
12.3 0.9 0
12.6 0.9 0
12.9 0.9 0
13.2 0.9 0
13.5 0.9 0
13.8 0.9 0
14.1 0.9 0
14.4 0.9 0
14.7 0.9 0
15 0.9 0
15.3 0.9 0
15.6 0.9 0
15.9 0.9 0
16.2 0.9 0
16.5 0.9 0
16.8 0.9 0
17.1 0.9 0
17.4 0.9 0
17.7 0.9 0
18 0.9 0
18.3 0.9 0
18.6 0.9 0
18.9 0.9 0
19.2 0.9 0
19.5 0.9 0
19.8 0.9 0
20.1 0.9 0
20.4 0.9 0
20.7 0.9 0
21 0.9 0
21.3 0.9 0
21.6 0.9 0
21.9 0.9 0
22.2 0.9 0
22.5 0.9 0
22.8 0.9 0
23.1 0.9 0
23.4 0.9 0
23.7 0.9 0
24 0.9 0
24.3 0.9 0
24.6 0.9 0
24.9 0.9 0
25.2 0.9 0
25.5 0.9 0
25.8 0.9 0
26.1 0.9 0
26.4 0.9 0
26.7 0.9 0
27 0.9 0
27.3 0.9 0
27.6 0.9 0
27.9 0.9 0
28.2 0.9 0
28.5 0.9 0
28.8 0.9 0
29.1 0.9 0
29.4 0.9 0
29.7 0.9 0
30 0.9 0
30.3 0.9 0
0 1 0
0.3 1 0
0.6 1 0
0.9 1 0
1.2 1 0
1.5 1 0
1.8 1 0
2.1 1 0
2.4 1 0
2.7 1 0
3 1 0
3.3 1 0
3.6 1 0
3.9 1 0
4.2 1 0
4.5 1 0
4.8 1 0
5.1 1 0
5.4 1 0
5.7 1 0
6 1 0
6.3 1 0
6.6 1 0
6.9 1 0
7.2 1 0
7.5 1 0
7.8 1 0
8.1 1 0
8.4 1 0
8.7 1 0
9 1 0
9.3 1 0
9.6 1 0
9.9 1 0
10.2 1 0
10.5 1 0
10.8 1 0
11.1 1 0
11.4 1 0
11.7 1 0
12 1 0
12.3 1 0
12.6 1 0
12.9 1 0
13.2 1 0
13.5 1 0
13.8 1 0
14.1 1 0
14.4 1 0
14.7 1 0
15 1 0
15.3 1 0
15.6 1 0
15.9 1 0
16.2 1 0
16.5 1 0
16.8 1 0
17.1 1 0
17.4 1 0
17.7 1 0
18 1 0
18.3 1 0
18.6 1 0
18.9 1 0
19.2 1 0
19.5 1 0
19.8 1 0
20.1 1 0
20.4 1 0
20.7 1 0
21 1 0
21.3 1 0
21.6 1 0
21.9 1 0
22.2 1 0
22.5 1 0
22.8 1 0
23.1 1 0
23.4 1 0
23.7 1 0
24 1 0
24.3 1 0
24.6 1 0
24.9 1 0
25.2 1 0
25.5 1 0
25.8 1 0
26.1 1 0
26.4 1 0
26.7 1 0
27 1 0
27.3 1 0
27.6 1 0
27.9 1 0
28.2 1 0
28.5 1 0
28.8 1 0
29.1 1 0
29.4 1 0
29.7 1 0
30 1 0
30.3 1 0
0 1.1 0
0.3 1.1 0
0.6 1.1 0
0.9 1.1 0
1.2 1.1 0
1.5 1.1 0
1.8 1.1 0
2.1 1.1 0
2.4 1.1 0
2.7 1.1 0
3 1.1 0
3.3 1.1 0
3.6 1.1 0
3.9 1.1 0
4.2 1.1 0
4.5 1.1 0
4.8 1.1 0
5.1 1.1 0
5.4 1.1 0
5.7 1.1 0
6 1.1 0
6.3 1.1 0
6.6 1.1 0
6.9 1.1 0
7.2 1.1 0
7.5 1.1 0
7.8 1.1 0
8.1 1.1 0
8.4 1.1 0
8.7 1.1 0
9 1.1 0
9.3 1.1 0
9.6 1.1 0
9.9 1.1 0
10.2 1.1 0
10.5 1.1 0
10.8 1.1 0
11.1 1.1 0
11.4 1.1 0
11.7 1.1 0
12 1.1 0
12.3 1.1 0
12.6 1.1 0
12.9 1.1 0
13.2 1.1 0
13.5 1.1 0
13.8 1.1 0
14.1 1.1 0
14.4 1.1 0
14.7 1.1 0
15 1.1 0
15.3 1.1 0
15.6 1.1 0
15.9 1.1 0
16.2 1.1 0
16.5 1.1 0
16.8 1.1 0
17.1 1.1 0
17.4 1.1 0
17.7 1.1 0
18 1.1 0
18.3 1.1 0
18.6 1.1 0
18.9 1.1 0
19.2 1.1 0
19.5 1.1 0
19.8 1.1 0
20.1 1.1 0
20.4 1.1 0
20.7 1.1 0
21 1.1 0
21.3 1.1 0
21.6 1.1 0
21.9 1.1 0
22.2 1.1 0
22.5 1.1 0
22.8 1.1 0
23.1 1.1 0
23.4 1.1 0
23.7 1.1 0
24 1.1 0
24.3 1.1 0
24.6 1.1 0
24.9 1.1 0
25.2 1.1 0
25.5 1.1 0
25.8 1.1 0
26.1 1.1 0
26.4 1.1 0
26.7 1.1 0
27 1.1 0
27.3 1.1 0
27.6 1.1 0
27.9 1.1 0
28.2 1.1 0
28.5 1.1 0
28.8 1.1 0
29.1 1.1 0
29.4 1.1 0
29.7 1.1 0
30 1.1 0
30.3 1.1 0
0 1.2 0
0.3 1.2 0
0.6 1.2 0
0.9 1.2 0
1.2 1.2 0
1.5 1.2 0
1.8 1.2 0
2.1 1.2 0
2.4 1.2 0
2.7 1.2 0
3 1.2 0
3.3 1.2 0
3.6 1.2 0
3.9 1.2 0
4.2 1.2 0
4.5 1.2 0
4.8 1.2 0
5.1 1.2 0
5.4 1.2 0
5.7 1.2 0
6 1.2 0
6.3 1.2 0
6.6 1.2 0
6.9 1.2 0
7.2 1.2 0
7.5 1.2 0
7.8 1.2 0
8.1 1.2 0
8.4 1.2 0
8.7 1.2 0
9 1.2 0
9.3 1.2 0
9.6 1.2 0
9.9 1.2 0
10.2 1.2 0
10.5 1.2 0
10.8 1.2 0
11.1 1.2 0
11.4 1.2 0
11.7 1.2 0
12 1.2 0
12.3 1.2 0
12.6 1.2 0
12.9 1.2 0
13.2 1.2 0
13.5 1.2 0
13.8 1.2 0
14.1 1.2 0
14.4 1.2 0
14.7 1.2 0
15 1.2 0
15.3 1.2 0
15.6 1.2 0
15.9 1.2 0
16.2 1.2 0
16.5 1.2 0
16.8 1.2 0
17.1 1.2 0
17.4 1.2 0
17.7 1.2 0
18 1.2 0
18.3 1.2 0
18.6 1.2 0
18.9 1.2 0
19.2 1.2 0
19.5 1.2 0
19.8 1.2 0
20.1 1.2 0
20.4 1.2 0
20.7 1.2 0
21 1.2 0
21.3 1.2 0
21.6 1.2 0
21.9 1.2 0
22.2 1.2 0
22.5 1.2 0
22.8 1.2 0
23.1 1.2 0
23.4 1.2 0
23.7 1.2 0
24 1.2 0
24.3 1.2 0
24.6 1.2 0
24.9 1.2 0
25.2 1.2 0
25.5 1.2 0
25.8 1.2 0
26.1 1.2 0
26.4 1.2 0
26.7 1.2 0
27 1.2 0
27.3 1.2 0
27.6 1.2 0
27.9 1.2 0
28.2 1.2 0
28.5 1.2 0
28.8 1.2 0
29.1 1.2 0
29.4 1.2 0
29.7 1.2 0
30 1.2 0
30.3 1.2 0

POINT_DATA 1326

SCALARS p double
LOOKUP_TABLE default
1.16101
1.16101
1.09617
1.05193
1.01211
0.975531
0.942479
0.912951
0.886595
0.862886
0.841284
0.821321
0.802628
0.784929
0.768022
0.751762
0.736043
0.720788
0.705936
0.691441
0.677266
0.663381
0.649761
0.636382
0.623226
0.610276
0.597516
0.584934
0.572516
0.560252
0.548131
0.536144
0.524283
0.51254
0.500907
0.489378
0.477946
0.466605
0.455351
0.444178
0.433082
0.422059
0.411105
0.400217
0.389394
0.378632
0.36793
0.357288
0.346703
0.336174
0.325701
0.315281
0.304912
0.294592
0.284319
0.274089
0.263899
0.253745
0.243624
0.233532
0.223465
0.213419
0.203392
0.193381
0.183382
0.173394
0.163414
0.153441
0.143473
0.133508
0.123547
0.113589
0.103631
0.0936755
0.0837205
0.0737662
0.0638124
0.0538589
0.0439056
0.0339525
0.0239995
0.0140465
0.00409361
-0.00585926
-0.0158121
-0.0257649
-0.0357177
-0.0456706
-0.0556234
-0.0655762
-0.0755289
-0.0854817
-0.0954345
-0.105387
-0.11534
-0.125293
-0.135246
-0.145198
-0.155151
-0.165104
-0.175052
0.175052
1.16101
1.16101
1.09617
1.05193
1.01211
0.975531
0.942479
0.912951
0.886595
0.862886
0.841284
0.821321
0.802628
0.784929
0.768022
0.751762
0.736043
0.720788
0.705936
0.691441
0.677266
0.663381
0.649761
0.636382
0.623226
0.610276
0.597516
0.584934
0.572516
0.560252
0.548131
0.536144
0.524283
0.51254
0.500907
0.489378
0.477946
0.466605
0.455351
0.444178
0.433082
0.422059
0.411105
0.400217
0.389394
0.378632
0.36793
0.357288
0.346703
0.336174
0.325701
0.315281
0.304912
0.294592
0.284319
0.274089
0.263899
0.253745
0.243624
0.233532
0.223465
0.213419
0.203392
0.193381
0.183382
0.173394
0.163414
0.153441
0.143473
0.133508
0.123547
0.113589
0.103631
0.0936755
0.0837205
0.0737662
0.0638124
0.0538589
0.0439056
0.0339525
0.0239995
0.0140465
0.00409361
-0.00585926
-0.0158121
-0.0257649
-0.0357177
-0.0456706
-0.0556234
-0.0655762
-0.0755289
-0.0854817
-0.0954345
-0.105387
-0.11534
-0.125293
-0.135246
-0.145198
-0.155151
-0.165104
-0.175052
0.175052
1.14007
1.14007
1.09418
1.05216
1.01281
0.976327
0.943222
0.913583
0.887103
0.863281
0.841588
0.821555
0.80281
0.785073
0.768139
0.75186
0.736126
0.720859
0.705998
0.691496
0.677315
0.663426
0.649801
0.636419
0.623259
0.610307
0.597545
0.58496
0.57254
0.560274
0.548152
0.536164
0.524301
0.512557
0.500923
0.489392
0.477959
0.466618
0.455363
0.44419
0.433093
0.422069
0.411114
0.400226
0.389402
0.378639
0.367937
0.357294
0.346708
0.336179
0.325705
0.315284
0.304914
0.294594
0.28432
0.27409
0.2639
0.253746
0.243624
0.233532
0.223465
0.213419
0.203392
0.193381
0.183382
0.173394
0.163414
0.153441
0.143473
0.133508
0.123547
0.113588
0.103631
0.0936755
0.0837205
0.0737662
0.0638124
0.0538589
0.0439056
0.0339525
0.0239994
0.0140465
0.0040936
-0.00585926
-0.0158121
-0.0257649
-0.0357177
-0.0456706
-0.0556234
-0.0655762
-0.0755289
-0.0854817
-0.0954345
-0.105387
-0.11534
-0.125293
-0.135246
-0.145198
-0.155151
-0.165105
-0.175052
0.175052
1.12509
1.12509
1.09129
1.05239
1.01392
0.977652
0.944483
0.914661
0.887964
0.86394
0.84208
0.821919
0.803081
0.785278
0.768297
0.751985
0.736227
0.720943
0.706069
0.691557
0.677368
0.663472
0.649842
0.636456
0.623293
0.610337
0.597572
0.584985
0.572563
0.560295
0.548171
0.536181
0.524317
0.512571
0.500936
0.489405
0.477971
0.466629
0.455373
0.444199
0.433102
0.422077
0.411122
0.400233
0.389408
0.378645
0.367942
0.357298
0.346712
0.336182
0.325708
0.315286
0.304917
0.294596
0.284322
0.274091
0.2639
0.253746
0.243625
0.233532
0.223465
0.213419
0.203392
0.193381
0.183382
0.173394
0.163414
0.153441
0.143472
0.133508
0.123547
0.113588
0.103631
0.0936754
0.0837205
0.0737662
0.0638124
0.0538589
0.0439056
0.0339525
0.0239994
0.0140465
0.0040936
-0.00585926
-0.0158121
-0.0257649
-0.0357177
-0.0456706
-0.0556234
-0.0655762
-0.0755289
-0.0854817
-0.0954345
-0.105387
-0.11534
-0.125293
-0.135246
-0.145198
-0.155151
-0.165103
-0.175051
0.175051
1.11552
1.11552
1.08881
1.0525
1.01487
0.978846
0.94566
0.915697
0.888817
0.864613
0.842597
0.822314
0.803384
0.785513
0.768483
0.752134
0.73635
0.721046
0.706157
0.691633
0.677435
0.663531
0.649894
0.636502
0.623334
0.610374
0.597605
0.585015
0.57259
0.56032
0.548194
0.536202
0.524337
0.512589
0.500953
0.48942
0.477985
0.466642
0.455385
0.44421
0.433112
0.422087
0.411131
0.400241
0.389416
0.378653
0.367949
0.357305
0.346718
0.336188
0.325713
0.315291
0.304921
0.2946
0.284325
0.274094
0.263903
0.253748
0.243626
0.233534
0.223466
0.21342
0.203393
0.193381
0.183383
0.173394
0.163414
0.153441
0.143473
0.133508
0.123547
0.113588
0.103631
0.0936755
0.0837205
0.0737662
0.0638124
0.0538589
0.0439056
0.0339525
0.0239994
0.0140465
0.0040936
-0.00585926
-0.0158121
-0.0257649
-0.0357177
-0.0456706
-0.0556234
-0.0655762
-0.0755289
-0.0854817
-0.0954345
-0.105387
-0.11534
-0.125293
-0.135246
-0.145198
-0.15515
-0.1651
-0.175049
0.175049
1.1102
1.1102
1.08718
1.05251
1.01547
0.979613
0.946429
0.916387
0.889395
0.865077
0.842962
0.822598
0.803606
0.785689
0.768626
0.752252
0.736449
0.721131
0.70623
0.691697
0.677492
0.663581
0.649939
0.636543
0.623371
0.610407
0.597636
0.585043
0.572616
0.560343
0.548215
0.536222
0.524355
0.512606
0.500968
0.489434
0.477998
0.466654
0.455397
0.444221
0.433122
0.422096
0.41114
0.40025
0.389424
0.37866
0.367957
0.357312
0.346725
0.336195
0.325719
0.315297
0.304926
0.294605
0.28433
0.274098
0.263907
0.253752
0.243629
0.233536
0.223468
0.213422
0.203395
0.193383
0.183384
0.173395
0.163415
0.153441
0.143473
0.133509
0.123547
0.113589
0.103631
0.0936755
0.0837206
0.0737663
0.0638124
0.0538589
0.0439056
0.0339525
0.0239995
0.0140465
0.00409361
-0.00585926
-0.0158121
-0.0257649
-0.0357177
-0.0456706
-0.0556234
-0.0655762
-0.0755289
-0.0854817
-0.0954345
-0.105387
-0.11534
-0.125293
-0.135246
-0.145198
-0.155149
-0.165096
-0.175047
0.175047
1.1085
1.1085
1.08664
1.05253
1.01568
0.979887
0.946703
0.916632
0.889601
0.865244
0.843094
0.822703
0.803689
0.785756
0.76868
0.752297
0.736488
0.721164
0.70626
0.691723
0.677515
0.663602
0.649958
0.63656
0.623387
0.610421
0.597649
0.585055
0.572627
0.560353
0.548224
0.53623
0.524363
0.512613
0.500975
0.489441
0.478004
0.46666
0.455402
0.444226
0.433126
0.4221
0.411144
0.400254
0.389428
0.378664
0.36796
0.357315
0.346728
0.336198
0.325722
0.3153
0.304929
0.294607
0.284332
0.2741
0.263909
0.253753
0.243631
0.233537
0.223469
0.213423
0.203395
0.193383
0.183384
0.173395
0.163415
0.153441
0.143473
0.133509
0.123548
0.113589
0.103631
0.0936756
0.0837206
0.0737663
0.0638124
0.0538589
0.0439056
0.0339525
0.0239995
0.0140465
0.00409361
-0.00585926
-0.0158121
-0.0257649
-0.0357177
-0.0456706
-0.0556234
-0.0655762
-0.0755289
-0.0854817
-0.0954345
-0.105387
-0.11534
-0.125293
-0.135246
-0.145198
-0.155149
-0.165094
-0.175046
0.175046
1.1102
1.1102
1.08718
1.05251
1.01547
0.979613
0.946429
0.916387
0.889395
0.865077
0.842962
0.822598
0.803606
0.785689
0.768626
0.752252
0.736449
0.721131
0.70623
0.691697
0.677492
0.663581
0.649939
0.636543
0.623371
0.610407
0.597636
0.585043
0.572616
0.560343
0.548215
0.536222
0.524355
0.512606
0.500968
0.489434
0.477998
0.466654
0.455397
0.444221
0.433122
0.422096
0.41114
0.40025
0.389424
0.37866
0.367957
0.357312
0.346725
0.336195
0.325719
0.315297
0.304926
0.294605
0.28433
0.274098
0.263907
0.253752
0.243629
0.233536
0.223468
0.213422
0.203395
0.193383
0.183384
0.173395
0.163415
0.153441
0.143473
0.133509
0.123547
0.113589
0.103631
0.0936755
0.0837206
0.0737663
0.0638124
0.0538589
0.0439056
0.0339525
0.0239995
0.0140465
0.00409361
-0.00585926
-0.0158121
-0.0257649
-0.0357177
-0.0456706
-0.0556234
-0.0655762
-0.0755289
-0.0854817
-0.0954345
-0.105387
-0.11534
-0.125293
-0.135246
-0.145198
-0.155149
-0.165096
-0.175047
0.175047
1.11552
1.11552
1.08881
1.0525
1.01487
0.978846
0.94566
0.915697
0.888817
0.864613
0.842597
0.822314
0.803384
0.785513
0.768483
0.752134
0.73635
0.721046
0.706157
0.691633
0.677435
0.663531
0.649894
0.636502
0.623334
0.610374
0.597605
0.585015
0.57259
0.56032
0.548194
0.536202
0.524337
0.512589
0.500953
0.48942
0.477985
0.466642
0.455385
0.44421
0.433112
0.422087
0.411131
0.400241
0.389416
0.378653
0.367949
0.357305
0.346718
0.336188
0.325713
0.315291
0.304921
0.2946
0.284325
0.274094
0.263903
0.253748
0.243626
0.233534
0.223466
0.21342
0.203393
0.193381
0.183383
0.173394
0.163414
0.153441
0.143473
0.133508
0.123547
0.113588
0.103631
0.0936755
0.0837205
0.0737662
0.0638124
0.0538589
0.0439056
0.0339525
0.0239994
0.0140465
0.0040936
-0.00585926
-0.0158121
-0.0257649
-0.0357177
-0.0456706
-0.0556234
-0.0655761
-0.0755289
-0.0854817
-0.0954345
-0.105387
-0.11534
-0.125293
-0.135246
-0.145198
-0.15515
-0.1651
-0.175049
0.175049
1.12509
1.12509
1.09129
1.05239
1.01392
0.977652
0.944483
0.914661
0.887964
0.86394
0.84208
0.821919
0.803081
0.785278
0.768297
0.751985
0.736227
0.720943
0.706069
0.691557
0.677368
0.663472
0.649842
0.636456
0.623293
0.610337
0.597572
0.584985
0.572563
0.560295
0.548171
0.536181
0.524317
0.512571
0.500936
0.489405
0.477971
0.466629
0.455373
0.444199
0.433102
0.422077
0.411122
0.400233
0.389408
0.378645
0.367942
0.357298
0.346712
0.336182
0.325708
0.315286
0.304917
0.294596
0.284322
0.274091
0.2639
0.253746
0.243625
0.233532
0.223465
0.213419
0.203392
0.193381
0.183382
0.173394
0.163414
0.153441
0.143472
0.133508
0.123547
0.113588
0.103631
0.0936754
0.0837205
0.0737662
0.0638124
0.0538589
0.0439056
0.0339525
0.0239994
0.0140465
0.0040936
-0.00585926
-0.0158121
-0.0257649
-0.0357177
-0.0456706
-0.0556234
-0.0655761
-0.0755289
-0.0854817
-0.0954345
-0.105387
-0.11534
-0.125293
-0.135246
-0.145198
-0.155151
-0.165103
-0.175051
0.175051
1.14007
1.14007
1.09418
1.05216
1.01281
0.976327
0.943222
0.913583
0.887103
0.863281
0.841588
0.821555
0.80281
0.785073
0.768139
0.75186
0.736126
0.720859
0.705998
0.691496
0.677315
0.663426
0.649801
0.636419
0.623259
0.610307
0.597545
0.58496
0.57254
0.560274
0.548152
0.536164
0.524301
0.512557
0.500923
0.489392
0.477959
0.466618
0.455363
0.44419
0.433093
0.422069
0.411114
0.400226
0.389402
0.378639
0.367937
0.357294
0.346708
0.336179
0.325705
0.315284
0.304914
0.294594
0.28432
0.27409
0.2639
0.253746
0.243624
0.233532
0.223465
0.213419
0.203392
0.193381
0.183382
0.173394
0.163414
0.153441
0.143473
0.133508
0.123547
0.113588
0.103631
0.0936755
0.0837205
0.0737662
0.0638124
0.0538589
0.0439056
0.0339525
0.0239994
0.0140465
0.00409361
-0.00585926
-0.0158121
-0.0257649
-0.0357177
-0.0456705
-0.0556234
-0.0655761
-0.0755289
-0.0854817
-0.0954345
-0.105387
-0.11534
-0.125293
-0.135246
-0.145198
-0.155151
-0.165105
-0.175052
0.175052
1.16101
1.16101
1.09617
1.05193
1.01211
0.975531
0.942479
0.912951
0.886595
0.862886
0.841284
0.821321
0.802628
0.784929
0.768022
0.751762
0.736043
0.720788
0.705936
0.691441
0.677266
0.663381
0.649761
0.636382
0.623226
0.610276
0.597516
0.584934
0.572516
0.560252
0.548131
0.536144
0.524283
0.51254
0.500907
0.489378
0.477946
0.466605
0.455351
0.444178
0.433082
0.422059
0.411105
0.400217
0.389394
0.378632
0.36793
0.357288
0.346703
0.336174
0.325701
0.315281
0.304912
0.294592
0.284319
0.274089
0.263899
0.253745
0.243624
0.233532
0.223465
0.213419
0.203392
0.193381
0.183382
0.173394
0.163414
0.153441
0.143473
0.133508
0.123547
0.113588
0.103631
0.0936755
0.0837205
0.0737662
0.0638124
0.0538589
0.0439056
0.0339525
0.0239995
0.0140465
0.00409361
-0.00585926
-0.0158121
-0.0257649
-0.0357177
-0.0456706
-0.0556234
-0.0655761
-0.0755289
-0.0854817
-0.0954345
-0.105387
-0.11534
-0.125293
-0.135246
-0.145198
-0.155151
-0.165104
-0.175052
0.175052
1.16101
1.16101
1.09617
1.05193
1.01211
0.975531
0.942479
0.912951
0.886595
0.862886
0.841284
0.821321
0.802628
0.784929
0.768022
0.751762
0.736043
0.720788
0.705936
0.691441
0.677266
0.663381
0.649761
0.636382
0.623226
0.610276
0.597516
0.584934
0.572516
0.560252
0.548131
0.536144
0.524283
0.51254
0.500907
0.489378
0.477946
0.466605
0.455351
0.444178
0.433082
0.422059
0.411105
0.400217
0.389394
0.378632
0.36793
0.357288
0.346703
0.336174
0.325701
0.315281
0.304912
0.294592
0.284319
0.274089
0.263899
0.253745
0.243624
0.233532
0.223465
0.213419
0.203392
0.193381
0.183382
0.173394
0.163414
0.153441
0.143473
0.133508
0.123547
0.113588
0.103631
0.0936755
0.0837205
0.0737662
0.0638124
0.0538589
0.0439056
0.0339525
0.0239995
0.0140465
0.00409361
-0.00585926
-0.0158121
-0.0257649
-0.0357177
-0.0456706
-0.0556234
-0.0655761
-0.0755289
-0.0854817
-0.0954345
-0.105387
-0.11534
-0.125293
-0.135246
-0.145198
-0.155151
-0.165104
-0.175052
0.175052
