# vtk DataFile Version 2.0
FlowField
ASCII
DATASET STRUCTURED_GRID
DIMENSIONS 102 13 1 
POINTS 1326 double
0 0 0
0.3 0 0
0.6 0 0
0.9 0 0
1.2 0 0
1.5 0 0
1.8 0 0
2.1 0 0
2.4 0 0
2.7 0 0
3 0 0
3.3 0 0
3.6 0 0
3.9 0 0
4.2 0 0
4.5 0 0
4.8 0 0
5.1 0 0
5.4 0 0
5.7 0 0
6 0 0
6.3 0 0
6.6 0 0
6.9 0 0
7.2 0 0
7.5 0 0
7.8 0 0
8.1 0 0
8.4 0 0
8.7 0 0
9 0 0
9.3 0 0
9.6 0 0
9.9 0 0
10.2 0 0
10.5 0 0
10.8 0 0
11.1 0 0
11.4 0 0
11.7 0 0
12 0 0
12.3 0 0
12.6 0 0
12.9 0 0
13.2 0 0
13.5 0 0
13.8 0 0
14.1 0 0
14.4 0 0
14.7 0 0
15 0 0
15.3 0 0
15.6 0 0
15.9 0 0
16.2 0 0
16.5 0 0
16.8 0 0
17.1 0 0
17.4 0 0
17.7 0 0
18 0 0
18.3 0 0
18.6 0 0
18.9 0 0
19.2 0 0
19.5 0 0
19.8 0 0
20.1 0 0
20.4 0 0
20.7 0 0
21 0 0
21.3 0 0
21.6 0 0
21.9 0 0
22.2 0 0
22.5 0 0
22.8 0 0
23.1 0 0
23.4 0 0
23.7 0 0
24 0 0
24.3 0 0
24.6 0 0
24.9 0 0
25.2 0 0
25.5 0 0
25.8 0 0
26.1 0 0
26.4 0 0
26.7 0 0
27 0 0
27.3 0 0
27.6 0 0
27.9 0 0
28.2 0 0
28.5 0 0
28.8 0 0
29.1 0 0
29.4 0 0
29.7 0 0
30 0 0
30.3 0 0
0 0.1 0
0.3 0.1 0
0.6 0.1 0
0.9 0.1 0
1.2 0.1 0
1.5 0.1 0
1.8 0.1 0
2.1 0.1 0
2.4 0.1 0
2.7 0.1 0
3 0.1 0
3.3 0.1 0
3.6 0.1 0
3.9 0.1 0
4.2 0.1 0
4.5 0.1 0
4.8 0.1 0
5.1 0.1 0
5.4 0.1 0
5.7 0.1 0
6 0.1 0
6.3 0.1 0
6.6 0.1 0
6.9 0.1 0
7.2 0.1 0
7.5 0.1 0
7.8 0.1 0
8.1 0.1 0
8.4 0.1 0
8.7 0.1 0
9 0.1 0
9.3 0.1 0
9.6 0.1 0
9.9 0.1 0
10.2 0.1 0
10.5 0.1 0
10.8 0.1 0
11.1 0.1 0
11.4 0.1 0
11.7 0.1 0
12 0.1 0
12.3 0.1 0
12.6 0.1 0
12.9 0.1 0
13.2 0.1 0
13.5 0.1 0
13.8 0.1 0
14.1 0.1 0
14.4 0.1 0
14.7 0.1 0
15 0.1 0
15.3 0.1 0
15.6 0.1 0
15.9 0.1 0
16.2 0.1 0
16.5 0.1 0
16.8 0.1 0
17.1 0.1 0
17.4 0.1 0
17.7 0.1 0
18 0.1 0
18.3 0.1 0
18.6 0.1 0
18.9 0.1 0
19.2 0.1 0
19.5 0.1 0
19.8 0.1 0
20.1 0.1 0
20.4 0.1 0
20.7 0.1 0
21 0.1 0
21.3 0.1 0
21.6 0.1 0
21.9 0.1 0
22.2 0.1 0
22.5 0.1 0
22.8 0.1 0
23.1 0.1 0
23.4 0.1 0
23.7 0.1 0
24 0.1 0
24.3 0.1 0
24.6 0.1 0
24.9 0.1 0
25.2 0.1 0
25.5 0.1 0
25.8 0.1 0
26.1 0.1 0
26.4 0.1 0
26.7 0.1 0
27 0.1 0
27.3 0.1 0
27.6 0.1 0
27.9 0.1 0
28.2 0.1 0
28.5 0.1 0
28.8 0.1 0
29.1 0.1 0
29.4 0.1 0
29.7 0.1 0
30 0.1 0
30.3 0.1 0
0 0.2 0
0.3 0.2 0
0.6 0.2 0
0.9 0.2 0
1.2 0.2 0
1.5 0.2 0
1.8 0.2 0
2.1 0.2 0
2.4 0.2 0
2.7 0.2 0
3 0.2 0
3.3 0.2 0
3.6 0.2 0
3.9 0.2 0
4.2 0.2 0
4.5 0.2 0
4.8 0.2 0
5.1 0.2 0
5.4 0.2 0
5.7 0.2 0
6 0.2 0
6.3 0.2 0
6.6 0.2 0
6.9 0.2 0
7.2 0.2 0
7.5 0.2 0
7.8 0.2 0
8.1 0.2 0
8.4 0.2 0
8.7 0.2 0
9 0.2 0
9.3 0.2 0
9.6 0.2 0
9.9 0.2 0
10.2 0.2 0
10.5 0.2 0
10.8 0.2 0
11.1 0.2 0
11.4 0.2 0
11.7 0.2 0
12 0.2 0
12.3 0.2 0
12.6 0.2 0
12.9 0.2 0
13.2 0.2 0
13.5 0.2 0
13.8 0.2 0
14.1 0.2 0
14.4 0.2 0
14.7 0.2 0
15 0.2 0
15.3 0.2 0
15.6 0.2 0
15.9 0.2 0
16.2 0.2 0
16.5 0.2 0
16.8 0.2 0
17.1 0.2 0
17.4 0.2 0
17.7 0.2 0
18 0.2 0
18.3 0.2 0
18.6 0.2 0
18.9 0.2 0
19.2 0.2 0
19.5 0.2 0
19.8 0.2 0
20.1 0.2 0
20.4 0.2 0
20.7 0.2 0
21 0.2 0
21.3 0.2 0
21.6 0.2 0
21.9 0.2 0
22.2 0.2 0
22.5 0.2 0
22.8 0.2 0
23.1 0.2 0
23.4 0.2 0
23.7 0.2 0
24 0.2 0
24.3 0.2 0
24.6 0.2 0
24.9 0.2 0
25.2 0.2 0
25.5 0.2 0
25.8 0.2 0
26.1 0.2 0
26.4 0.2 0
26.7 0.2 0
27 0.2 0
27.3 0.2 0
27.6 0.2 0
27.9 0.2 0
28.2 0.2 0
28.5 0.2 0
28.8 0.2 0
29.1 0.2 0
29.4 0.2 0
29.7 0.2 0
30 0.2 0
30.3 0.2 0
0 0.3 0
0.3 0.3 0
0.6 0.3 0
0.9 0.3 0
1.2 0.3 0
1.5 0.3 0
1.8 0.3 0
2.1 0.3 0
2.4 0.3 0
2.7 0.3 0
3 0.3 0
3.3 0.3 0
3.6 0.3 0
3.9 0.3 0
4.2 0.3 0
4.5 0.3 0
4.8 0.3 0
5.1 0.3 0
5.4 0.3 0
5.7 0.3 0
6 0.3 0
6.3 0.3 0
6.6 0.3 0
6.9 0.3 0
7.2 0.3 0
7.5 0.3 0
7.8 0.3 0
8.1 0.3 0
8.4 0.3 0
8.7 0.3 0
9 0.3 0
9.3 0.3 0
9.6 0.3 0
9.9 0.3 0
10.2 0.3 0
10.5 0.3 0
10.8 0.3 0
11.1 0.3 0
11.4 0.3 0
11.7 0.3 0
12 0.3 0
12.3 0.3 0
12.6 0.3 0
12.9 0.3 0
13.2 0.3 0
13.5 0.3 0
13.8 0.3 0
14.1 0.3 0
14.4 0.3 0
14.7 0.3 0
15 0.3 0
15.3 0.3 0
15.6 0.3 0
15.9 0.3 0
16.2 0.3 0
16.5 0.3 0
16.8 0.3 0
17.1 0.3 0
17.4 0.3 0
17.7 0.3 0
18 0.3 0
18.3 0.3 0
18.6 0.3 0
18.9 0.3 0
19.2 0.3 0
19.5 0.3 0
19.8 0.3 0
20.1 0.3 0
20.4 0.3 0
20.7 0.3 0
21 0.3 0
21.3 0.3 0
21.6 0.3 0
21.9 0.3 0
22.2 0.3 0
22.5 0.3 0
22.8 0.3 0
23.1 0.3 0
23.4 0.3 0
23.7 0.3 0
24 0.3 0
24.3 0.3 0
24.6 0.3 0
24.9 0.3 0
25.2 0.3 0
25.5 0.3 0
25.8 0.3 0
26.1 0.3 0
26.4 0.3 0
26.7 0.3 0
27 0.3 0
27.3 0.3 0
27.6 0.3 0
27.9 0.3 0
28.2 0.3 0
28.5 0.3 0
28.8 0.3 0
29.1 0.3 0
29.4 0.3 0
29.7 0.3 0
30 0.3 0
30.3 0.3 0
0 0.4 0
0.3 0.4 0
0.6 0.4 0
0.9 0.4 0
1.2 0.4 0
1.5 0.4 0
1.8 0.4 0
2.1 0.4 0
2.4 0.4 0
2.7 0.4 0
3 0.4 0
3.3 0.4 0
3.6 0.4 0
3.9 0.4 0
4.2 0.4 0
4.5 0.4 0
4.8 0.4 0
5.1 0.4 0
5.4 0.4 0
5.7 0.4 0
6 0.4 0
6.3 0.4 0
6.6 0.4 0
6.9 0.4 0
7.2 0.4 0
7.5 0.4 0
7.8 0.4 0
8.1 0.4 0
8.4 0.4 0
8.7 0.4 0
9 0.4 0
9.3 0.4 0
9.6 0.4 0
9.9 0.4 0
10.2 0.4 0
10.5 0.4 0
10.8 0.4 0
11.1 0.4 0
11.4 0.4 0
11.7 0.4 0
12 0.4 0
12.3 0.4 0
12.6 0.4 0
12.9 0.4 0
13.2 0.4 0
13.5 0.4 0
13.8 0.4 0
14.1 0.4 0
14.4 0.4 0
14.7 0.4 0
15 0.4 0
15.3 0.4 0
15.6 0.4 0
15.9 0.4 0
16.2 0.4 0
16.5 0.4 0
16.8 0.4 0
17.1 0.4 0
17.4 0.4 0
17.7 0.4 0
18 0.4 0
18.3 0.4 0
18.6 0.4 0
18.9 0.4 0
19.2 0.4 0
19.5 0.4 0
19.8 0.4 0
20.1 0.4 0
20.4 0.4 0
20.7 0.4 0
21 0.4 0
21.3 0.4 0
21.6 0.4 0
21.9 0.4 0
22.2 0.4 0
22.5 0.4 0
22.8 0.4 0
23.1 0.4 0
23.4 0.4 0
23.7 0.4 0
24 0.4 0
24.3 0.4 0
24.6 0.4 0
24.9 0.4 0
25.2 0.4 0
25.5 0.4 0
25.8 0.4 0
26.1 0.4 0
26.4 0.4 0
26.7 0.4 0
27 0.4 0
27.3 0.4 0
27.6 0.4 0
27.9 0.4 0
28.2 0.4 0
28.5 0.4 0
28.8 0.4 0
29.1 0.4 0
29.4 0.4 0
29.7 0.4 0
30 0.4 0
30.3 0.4 0
0 0.5 0
0.3 0.5 0
0.6 0.5 0
0.9 0.5 0
1.2 0.5 0
1.5 0.5 0
1.8 0.5 0
2.1 0.5 0
2.4 0.5 0
2.7 0.5 0
3 0.5 0
3.3 0.5 0
3.6 0.5 0
3.9 0.5 0
4.2 0.5 0
4.5 0.5 0
4.8 0.5 0
5.1 0.5 0
5.4 0.5 0
5.7 0.5 0
6 0.5 0
6.3 0.5 0
6.6 0.5 0
6.9 0.5 0
7.2 0.5 0
7.5 0.5 0
7.8 0.5 0
8.1 0.5 0
8.4 0.5 0
8.7 0.5 0
9 0.5 0
9.3 0.5 0
9.6 0.5 0
9.9 0.5 0
10.2 0.5 0
10.5 0.5 0
10.8 0.5 0
11.1 0.5 0
11.4 0.5 0
11.7 0.5 0
12 0.5 0
12.3 0.5 0
12.6 0.5 0
12.9 0.5 0
13.2 0.5 0
13.5 0.5 0
13.8 0.5 0
14.1 0.5 0
14.4 0.5 0
14.7 0.5 0
15 0.5 0
15.3 0.5 0
15.6 0.5 0
15.9 0.5 0
16.2 0.5 0
16.5 0.5 0
16.8 0.5 0
17.1 0.5 0
17.4 0.5 0
17.7 0.5 0
18 0.5 0
18.3 0.5 0
18.6 0.5 0
18.9 0.5 0
19.2 0.5 0
19.5 0.5 0
19.8 0.5 0
20.1 0.5 0
20.4 0.5 0
20.7 0.5 0
21 0.5 0
21.3 0.5 0
21.6 0.5 0
21.9 0.5 0
22.2 0.5 0
22.5 0.5 0
22.8 0.5 0
23.1 0.5 0
23.4 0.5 0
23.7 0.5 0
24 0.5 0
24.3 0.5 0
24.6 0.5 0
24.9 0.5 0
25.2 0.5 0
25.5 0.5 0
25.8 0.5 0
26.1 0.5 0
26.4 0.5 0
26.7 0.5 0
27 0.5 0
27.3 0.5 0
27.6 0.5 0
27.9 0.5 0
28.2 0.5 0
28.5 0.5 0
28.8 0.5 0
29.1 0.5 0
29.4 0.5 0
29.7 0.5 0
30 0.5 0
30.3 0.5 0
0 0.6 0
0.3 0.6 0
0.6 0.6 0
0.9 0.6 0
1.2 0.6 0
1.5 0.6 0
1.8 0.6 0
2.1 0.6 0
2.4 0.6 0
2.7 0.6 0
3 0.6 0
3.3 0.6 0
3.6 0.6 0
3.9 0.6 0
4.2 0.6 0
4.5 0.6 0
4.8 0.6 0
5.1 0.6 0
5.4 0.6 0
5.7 0.6 0
6 0.6 0
6.3 0.6 0
6.6 0.6 0
6.9 0.6 0
7.2 0.6 0
7.5 0.6 0
7.8 0.6 0
8.1 0.6 0
8.4 0.6 0
8.7 0.6 0
9 0.6 0
9.3 0.6 0
9.6 0.6 0
9.9 0.6 0
10.2 0.6 0
10.5 0.6 0
10.8 0.6 0
11.1 0.6 0
11.4 0.6 0
11.7 0.6 0
12 0.6 0
12.3 0.6 0
12.6 0.6 0
12.9 0.6 0
13.2 0.6 0
13.5 0.6 0
13.8 0.6 0
14.1 0.6 0
14.4 0.6 0
14.7 0.6 0
15 0.6 0
15.3 0.6 0
15.6 0.6 0
15.9 0.6 0
16.2 0.6 0
16.5 0.6 0
16.8 0.6 0
17.1 0.6 0
17.4 0.6 0
17.7 0.6 0
18 0.6 0
18.3 0.6 0
18.6 0.6 0
18.9 0.6 0
19.2 0.6 0
19.5 0.6 0
19.8 0.6 0
20.1 0.6 0
20.4 0.6 0
20.7 0.6 0
21 0.6 0
21.3 0.6 0
21.6 0.6 0
21.9 0.6 0
22.2 0.6 0
22.5 0.6 0
22.8 0.6 0
23.1 0.6 0
23.4 0.6 0
23.7 0.6 0
24 0.6 0
24.3 0.6 0
24.6 0.6 0
24.9 0.6 0
25.2 0.6 0
25.5 0.6 0
25.8 0.6 0
26.1 0.6 0
26.4 0.6 0
26.7 0.6 0
27 0.6 0
27.3 0.6 0
27.6 0.6 0
27.9 0.6 0
28.2 0.6 0
28.5 0.6 0
28.8 0.6 0
29.1 0.6 0
29.4 0.6 0
29.7 0.6 0
30 0.6 0
30.3 0.6 0
0 0.7 0
0.3 0.7 0
0.6 0.7 0
0.9 0.7 0
1.2 0.7 0
1.5 0.7 0
1.8 0.7 0
2.1 0.7 0
2.4 0.7 0
2.7 0.7 0
3 0.7 0
3.3 0.7 0
3.6 0.7 0
3.9 0.7 0
4.2 0.7 0
4.5 0.7 0
4.8 0.7 0
5.1 0.7 0
5.4 0.7 0
5.7 0.7 0
6 0.7 0
6.3 0.7 0
6.6 0.7 0
6.9 0.7 0
7.2 0.7 0
7.5 0.7 0
7.8 0.7 0
8.1 0.7 0
8.4 0.7 0
8.7 0.7 0
9 0.7 0
9.3 0.7 0
9.6 0.7 0
9.9 0.7 0
10.2 0.7 0
10.5 0.7 0
10.8 0.7 0
11.1 0.7 0
11.4 0.7 0
11.7 0.7 0
12 0.7 0
12.3 0.7 0
12.6 0.7 0
12.9 0.7 0
13.2 0.7 0
13.5 0.7 0
13.8 0.7 0
14.1 0.7 0
14.4 0.7 0
14.7 0.7 0
15 0.7 0
15.3 0.7 0
15.6 0.7 0
15.9 0.7 0
16.2 0.7 0
16.5 0.7 0
16.8 0.7 0
17.1 0.7 0
17.4 0.7 0
17.7 0.7 0
18 0.7 0
18.3 0.7 0
18.6 0.7 0
18.9 0.7 0
19.2 0.7 0
19.5 0.7 0
19.8 0.7 0
20.1 0.7 0
20.4 0.7 0
20.7 0.7 0
21 0.7 0
21.3 0.7 0
21.6 0.7 0
21.9 0.7 0
22.2 0.7 0
22.5 0.7 0
22.8 0.7 0
23.1 0.7 0
23.4 0.7 0
23.7 0.7 0
24 0.7 0
24.3 0.7 0
24.6 0.7 0
24.9 0.7 0
25.2 0.7 0
25.5 0.7 0
25.8 0.7 0
26.1 0.7 0
26.4 0.7 0
26.7 0.7 0
27 0.7 0
27.3 0.7 0
27.6 0.7 0
27.9 0.7 0
28.2 0.7 0
28.5 0.7 0
28.8 0.7 0
29.1 0.7 0
29.4 0.7 0
29.7 0.7 0
30 0.7 0
30.3 0.7 0
0 0.8 0
0.3 0.8 0
0.6 0.8 0
0.9 0.8 0
1.2 0.8 0
1.5 0.8 0
1.8 0.8 0
2.1 0.8 0
2.4 0.8 0
2.7 0.8 0
3 0.8 0
3.3 0.8 0
3.6 0.8 0
3.9 0.8 0
4.2 0.8 0
4.5 0.8 0
4.8 0.8 0
5.1 0.8 0
5.4 0.8 0
5.7 0.8 0
6 0.8 0
6.3 0.8 0
6.6 0.8 0
6.9 0.8 0
7.2 0.8 0
7.5 0.8 0
7.8 0.8 0
8.1 0.8 0
8.4 0.8 0
8.7 0.8 0
9 0.8 0
9.3 0.8 0
9.6 0.8 0
9.9 0.8 0
10.2 0.8 0
10.5 0.8 0
10.8 0.8 0
11.1 0.8 0
11.4 0.8 0
11.7 0.8 0
12 0.8 0
12.3 0.8 0
12.6 0.8 0
12.9 0.8 0
13.2 0.8 0
13.5 0.8 0
13.8 0.8 0
14.1 0.8 0
14.4 0.8 0
14.7 0.8 0
15 0.8 0
15.3 0.8 0
15.6 0.8 0
15.9 0.8 0
16.2 0.8 0
16.5 0.8 0
16.8 0.8 0
17.1 0.8 0
17.4 0.8 0
17.7 0.8 0
18 0.8 0
18.3 0.8 0
18.6 0.8 0
18.9 0.8 0
19.2 0.8 0
19.5 0.8 0
19.8 0.8 0
20.1 0.8 0
20.4 0.8 0
20.7 0.8 0
21 0.8 0
21.3 0.8 0
21.6 0.8 0
21.9 0.8 0
22.2 0.8 0
22.5 0.8 0
22.8 0.8 0
23.1 0.8 0
23.4 0.8 0
23.7 0.8 0
24 0.8 0
24.3 0.8 0
24.6 0.8 0
24.9 0.8 0
25.2 0.8 0
25.5 0.8 0
25.8 0.8 0
26.1 0.8 0
26.4 0.8 0
26.7 0.8 0
27 0.8 0
27.3 0.8 0
27.6 0.8 0
27.9 0.8 0
28.2 0.8 0
28.5 0.8 0
28.8 0.8 0
29.1 0.8 0
29.4 0.8 0
29.7 0.8 0
30 0.8 0
30.3 0.8 0
0 0.9 0
0.3 0.9 0
0.6 0.9 0
0.9 0.9 0
1.2 0.9 0
1.5 0.9 0
1.8 0.9 0
2.1 0.9 0
2.4 0.9 0
2.7 0.9 0
3 0.9 0
3.3 0.9 0
3.6 0.9 0
3.9 0.9 0
4.2 0.9 0
4.5 0.9 0
4.8 0.9 0
5.1 0.9 0
5.4 0.9 0
5.7 0.9 0
6 0.9 0
6.3 0.9 0
6.6 0.9 0
6.9 0.9 0
7.2 0.9 0
7.5 0.9 0
7.8 0.9 0
8.1 0.9 0
8.4 0.9 0
8.7 0.9 0
9 0.9 0
9.3 0.9 0
9.6 0.9 0
9.9 0.9 0
10.2 0.9 0
10.5 0.9 0
10.8 0.9 0
11.1 0.9 0
11.4 0.9 0
11.7 0.9 0
12 0.9 0
12.3 0.9 0
12.6 0.9 0
12.9 0.9 0
13.2 0.9 0
13.5 0.9 0
13.8 0.9 0
14.1 0.9 0
14.4 0.9 0
14.7 0.9 0
15 0.9 0
15.3 0.9 0
15.6 0.9 0
15.9 0.9 0
16.2 0.9 0
16.5 0.9 0
16.8 0.9 0
17.1 0.9 0
17.4 0.9 0
17.7 0.9 0
18 0.9 0
18.3 0.9 0
18.6 0.9 0
18.9 0.9 0
19.2 0.9 0
19.5 0.9 0
19.8 0.9 0
20.1 0.9 0
20.4 0.9 0
20.7 0.9 0
21 0.9 0
21.3 0.9 0
21.6 0.9 0
21.9 0.9 0
22.2 0.9 0
22.5 0.9 0
22.8 0.9 0
23.1 0.9 0
23.4 0.9 0
23.7 0.9 0
24 0.9 0
24.3 0.9 0
24.6 0.9 0
24.9 0.9 0
25.2 0.9 0
25.5 0.9 0
25.8 0.9 0
26.1 0.9 0
26.4 0.9 0
26.7 0.9 0
27 0.9 0
27.3 0.9 0
27.6 0.9 0
27.9 0.9 0
28.2 0.9 0
28.5 0.9 0
28.8 0.9 0
29.1 0.9 0
29.4 0.9 0
29.7 0.9 0
30 0.9 0
30.3 0.9 0
0 1 0
0.3 1 0
0.6 1 0
0.9 1 0
1.2 1 0
1.5 1 0
1.8 1 0
2.1 1 0
2.4 1 0
2.7 1 0
3 1 0
3.3 1 0
3.6 1 0
3.9 1 0
4.2 1 0
4.5 1 0
4.8 1 0
5.1 1 0
5.4 1 0
5.7 1 0
6 1 0
6.3 1 0
6.6 1 0
6.9 1 0
7.2 1 0
7.5 1 0
7.8 1 0
8.1 1 0
8.4 1 0
8.7 1 0
9 1 0
9.3 1 0
9.6 1 0
9.9 1 0
10.2 1 0
10.5 1 0
10.8 1 0
11.1 1 0
11.4 1 0
11.7 1 0
12 1 0
12.3 1 0
12.6 1 0
12.9 1 0
13.2 1 0
13.5 1 0
13.8 1 0
14.1 1 0
14.4 1 0
14.7 1 0
15 1 0
15.3 1 0
15.6 1 0
15.9 1 0
16.2 1 0
16.5 1 0
16.8 1 0
17.1 1 0
17.4 1 0
17.7 1 0
18 1 0
18.3 1 0
18.6 1 0
18.9 1 0
19.2 1 0
19.5 1 0
19.8 1 0
20.1 1 0
20.4 1 0
20.7 1 0
21 1 0
21.3 1 0
21.6 1 0
21.9 1 0
22.2 1 0
22.5 1 0
22.8 1 0
23.1 1 0
23.4 1 0
23.7 1 0
24 1 0
24.3 1 0
24.6 1 0
24.9 1 0
25.2 1 0
25.5 1 0
25.8 1 0
26.1 1 0
26.4 1 0
26.7 1 0
27 1 0
27.3 1 0
27.6 1 0
27.9 1 0
28.2 1 0
28.5 1 0
28.8 1 0
29.1 1 0
29.4 1 0
29.7 1 0
30 1 0
30.3 1 0
0 1.1 0
0.3 1.1 0
0.6 1.1 0
0.9 1.1 0
1.2 1.1 0
1.5 1.1 0
1.8 1.1 0
2.1 1.1 0
2.4 1.1 0
2.7 1.1 0
3 1.1 0
3.3 1.1 0
3.6 1.1 0
3.9 1.1 0
4.2 1.1 0
4.5 1.1 0
4.8 1.1 0
5.1 1.1 0
5.4 1.1 0
5.7 1.1 0
6 1.1 0
6.3 1.1 0
6.6 1.1 0
6.9 1.1 0
7.2 1.1 0
7.5 1.1 0
7.8 1.1 0
8.1 1.1 0
8.4 1.1 0
8.7 1.1 0
9 1.1 0
9.3 1.1 0
9.6 1.1 0
9.9 1.1 0
10.2 1.1 0
10.5 1.1 0
10.8 1.1 0
11.1 1.1 0
11.4 1.1 0
11.7 1.1 0
12 1.1 0
12.3 1.1 0
12.6 1.1 0
12.9 1.1 0
13.2 1.1 0
13.5 1.1 0
13.8 1.1 0
14.1 1.1 0
14.4 1.1 0
14.7 1.1 0
15 1.1 0
15.3 1.1 0
15.6 1.1 0
15.9 1.1 0
16.2 1.1 0
16.5 1.1 0
16.8 1.1 0
17.1 1.1 0
17.4 1.1 0
17.7 1.1 0
18 1.1 0
18.3 1.1 0
18.6 1.1 0
18.9 1.1 0
19.2 1.1 0
19.5 1.1 0
19.8 1.1 0
20.1 1.1 0
20.4 1.1 0
20.7 1.1 0
21 1.1 0
21.3 1.1 0
21.6 1.1 0
21.9 1.1 0
22.2 1.1 0
22.5 1.1 0
22.8 1.1 0
23.1 1.1 0
23.4 1.1 0
23.7 1.1 0
24 1.1 0
24.3 1.1 0
24.6 1.1 0
24.9 1.1 0
25.2 1.1 0
25.5 1.1 0
25.8 1.1 0
26.1 1.1 0
26.4 1.1 0
26.7 1.1 0
27 1.1 0
27.3 1.1 0
27.6 1.1 0
27.9 1.1 0
28.2 1.1 0
28.5 1.1 0
28.8 1.1 0
29.1 1.1 0
29.4 1.1 0
29.7 1.1 0
30 1.1 0
30.3 1.1 0
0 1.2 0
0.3 1.2 0
0.6 1.2 0
0.9 1.2 0
1.2 1.2 0
1.5 1.2 0
1.8 1.2 0
2.1 1.2 0
2.4 1.2 0
2.7 1.2 0
3 1.2 0
3.3 1.2 0
3.6 1.2 0
3.9 1.2 0
4.2 1.2 0
4.5 1.2 0
4.8 1.2 0
5.1 1.2 0
5.4 1.2 0
5.7 1.2 0
6 1.2 0
6.3 1.2 0
6.6 1.2 0
6.9 1.2 0
7.2 1.2 0
7.5 1.2 0
7.8 1.2 0
8.1 1.2 0
8.4 1.2 0
8.7 1.2 0
9 1.2 0
9.3 1.2 0
9.6 1.2 0
9.9 1.2 0
10.2 1.2 0
10.5 1.2 0
10.8 1.2 0
11.1 1.2 0
11.4 1.2 0
11.7 1.2 0
12 1.2 0
12.3 1.2 0
12.6 1.2 0
12.9 1.2 0
13.2 1.2 0
13.5 1.2 0
13.8 1.2 0
14.1 1.2 0
14.4 1.2 0
14.7 1.2 0
15 1.2 0
15.3 1.2 0
15.6 1.2 0
15.9 1.2 0
16.2 1.2 0
16.5 1.2 0
16.8 1.2 0
17.1 1.2 0
17.4 1.2 0
17.7 1.2 0
18 1.2 0
18.3 1.2 0
18.6 1.2 0
18.9 1.2 0
19.2 1.2 0
19.5 1.2 0
19.8 1.2 0
20.1 1.2 0
20.4 1.2 0
20.7 1.2 0
21 1.2 0
21.3 1.2 0
21.6 1.2 0
21.9 1.2 0
22.2 1.2 0
22.5 1.2 0
22.8 1.2 0
23.1 1.2 0
23.4 1.2 0
23.7 1.2 0
24 1.2 0
24.3 1.2 0
24.6 1.2 0
24.9 1.2 0
25.2 1.2 0
25.5 1.2 0
25.8 1.2 0
26.1 1.2 0
26.4 1.2 0
26.7 1.2 0
27 1.2 0
27.3 1.2 0
27.6 1.2 0
27.9 1.2 0
28.2 1.2 0
28.5 1.2 0
28.8 1.2 0
29.1 1.2 0
29.4 1.2 0
29.7 1.2 0
30 1.2 0
30.3 1.2 0

POINT_DATA 1326

SCALARS p double
LOOKUP_TABLE default
1.16094
1.16094
1.0961
1.05187
1.01204
0.975463
0.942414
0.912887
0.88653
0.862821
0.84122
0.821257
0.802563
0.784863
0.767957
0.751697
0.735978
0.720723
0.705871
0.691376
0.677201
0.663317
0.649696
0.636317
0.623161
0.610211
0.597452
0.584869
0.572451
0.560188
0.548066
0.53608
0.524219
0.512476
0.500842
0.489313
0.477882
0.466542
0.455289
0.444117
0.433022
0.421999
0.411045
0.400155
0.389326
0.378554
0.367837
0.357172
0.346555
0.335983
0.325455
0.314969
0.304521
0.29411
0.283734
0.27339
0.263078
0.252796
0.242541
0.232313
0.22211
0.21193
0.201773
0.191637
0.181522
0.171425
0.161347
0.151285
0.14124
0.13121
0.121195
0.111193
0.101204
0.0912278
0.0812634
0.0713098
0.0613666
0.0514333
0.0415094
0.0315943
0.0216878
0.0117894
0.00189817
-0.00798577
-0.0178628
-0.0277333
-0.0375978
-0.0474562
-0.0573091
-0.0671566
-0.0769989
-0.0868361
-0.0966686
-0.106497
-0.11632
-0.126139
-0.135955
-0.145766
-0.155574
-0.165379
-0.17518
0.17518
1.16094
1.16094
1.0961
1.05187
1.01204
0.975463
0.942414
0.912887
0.88653
0.862821
0.84122
0.821257
0.802563
0.784863
0.767957
0.751697
0.735978
0.720723
0.705871
0.691376
0.677201
0.663317
0.649696
0.636317
0.623161
0.610211
0.597452
0.584869
0.572451
0.560188
0.548066
0.53608
0.524219
0.512476
0.500842
0.489313
0.477882
0.466542
0.455289
0.444117
0.433022
0.421999
0.411045
0.400155
0.389326
0.378554
0.367837
0.357172
0.346555
0.335983
0.325455
0.314969
0.304521
0.29411
0.283734
0.27339
0.263078
0.252796
0.242541
0.232313
0.22211
0.21193
0.201773
0.191637
0.181522
0.171425
0.161347
0.151285
0.14124
0.13121
0.121195
0.111193
0.101204
0.0912278
0.0812634
0.0713098
0.0613666
0.0514333
0.0415094
0.0315943
0.0216878
0.0117894
0.00189817
-0.00798577
-0.0178628
-0.0277333
-0.0375978
-0.0474562
-0.0573091
-0.0671566
-0.0769989
-0.0868361
-0.0966686
-0.106497
-0.11632
-0.126139
-0.135955
-0.145766
-0.155574
-0.165379
-0.17518
0.17518
1.14
1.14
1.09411
1.05209
1.01274
0.97626
0.943157
0.913518
0.887037
0.863216
0.841523
0.82149
0.802745
0.785008
0.768075
0.751794
0.73606
0.720794
0.705933
0.691431
0.677251
0.663361
0.649736
0.636353
0.623195
0.610242
0.59748
0.584895
0.572476
0.56021
0.548087
0.536099
0.524237
0.512492
0.500858
0.489328
0.477896
0.466555
0.455301
0.444128
0.433032
0.422009
0.411054
0.400164
0.389334
0.378562
0.367845
0.357179
0.346561
0.335989
0.325461
0.314974
0.304526
0.294115
0.283738
0.273395
0.263082
0.252799
0.242545
0.232316
0.222113
0.211933
0.201776
0.19164
0.181524
0.171428
0.161349
0.151287
0.141242
0.131212
0.121197
0.111195
0.101206
0.0912295
0.0812649
0.0713112
0.0613679
0.0514346
0.0415106
0.0315955
0.021689
0.0117904
0.00189909
-0.00798483
-0.0178619
-0.0277325
-0.037597
-0.0474555
-0.0573084
-0.067156
-0.0769983
-0.0868356
-0.0966682
-0.106496
-0.11632
-0.126139
-0.135954
-0.145766
-0.155573
-0.165378
-0.175179
0.175179
1.12502
1.12502
1.09123
1.05233
1.01385
0.977585
0.944418
0.914595
0.887898
0.863875
0.842015
0.821855
0.803016
0.785213
0.768233
0.751919
0.736162
0.720878
0.706004
0.691492
0.677304
0.663408
0.649777
0.636391
0.623228
0.610272
0.597507
0.58492
0.572498
0.56023
0.548106
0.536117
0.524253
0.512507
0.500872
0.489341
0.477907
0.466566
0.455311
0.444138
0.433041
0.422017
0.411062
0.400171
0.389341
0.378568
0.367851
0.357184
0.346566
0.335994
0.325466
0.314978
0.30453
0.294119
0.283742
0.273398
0.263086
0.252802
0.242547
0.232319
0.222115
0.211935
0.201778
0.191642
0.181526
0.171429
0.161351
0.151289
0.141244
0.131214
0.121198
0.111196
0.101207
0.0912308
0.081266
0.0713122
0.0613689
0.0514355
0.0415115
0.0315964
0.0216898
0.0117911
0.00189982
-0.00798411
-0.0178612
-0.0277319
-0.0375964
-0.047455
-0.0573079
-0.0671555
-0.0769978
-0.0868352
-0.0966678
-0.106496
-0.116319
-0.126139
-0.135954
-0.145766
-0.155573
-0.165377
-0.175174
0.175174
1.11545
1.11545
1.08874
1.05243
1.01481
0.978781
0.945595
0.915632
0.888752
0.864548
0.842533
0.822249
0.803318
0.785448
0.768418
0.752069
0.736285
0.720981
0.706092
0.691568
0.67737
0.663466
0.649829
0.636437
0.62327
0.610309
0.597541
0.58495
0.572526
0.560256
0.548129
0.536138
0.524272
0.512525
0.500888
0.489356
0.477921
0.466579
0.455323
0.444149
0.433052
0.422027
0.411071
0.400179
0.389349
0.378576
0.367858
0.357191
0.346572
0.336
0.325471
0.314984
0.304535
0.294123
0.283746
0.273402
0.263089
0.252806
0.242551
0.232322
0.222118
0.211938
0.201781
0.191645
0.181529
0.171432
0.161353
0.151291
0.141245
0.131215
0.1212
0.111198
0.101209
0.0912322
0.0812673
0.0713135
0.0613701
0.0514367
0.0415126
0.0315974
0.0216907
0.0117919
0.00190068
-0.0079833
-0.0178605
-0.0277312
-0.0375957
-0.0474543
-0.0573073
-0.0671549
-0.0769973
-0.0868347
-0.0966673
-0.106495
-0.116319
-0.126138
-0.135954
-0.145765
-0.155572
-0.165375
-0.175164
0.175164
1.11013
1.11013
1.08712
1.05245
1.0154
0.979548
0.946364
0.916321
0.88933
0.865012
0.842897
0.822533
0.803541
0.785625
0.768561
0.752187
0.736385
0.721066
0.706165
0.691632
0.677427
0.663517
0.649875
0.636478
0.623307
0.610343
0.597571
0.584978
0.572551
0.560279
0.548151
0.536157
0.52429
0.512542
0.500904
0.48937
0.477935
0.466591
0.455335
0.44416
0.433062
0.422036
0.41108
0.400188
0.389356
0.378583
0.367864
0.357197
0.346578
0.336006
0.325476
0.314988
0.30454
0.294127
0.28375
0.273406
0.263093
0.252809
0.242554
0.232325
0.222121
0.211941
0.201783
0.191647
0.181531
0.171434
0.161355
0.151293
0.141247
0.131217
0.121201
0.111199
0.10121
0.0912335
0.0812686
0.0713147
0.0613712
0.0514377
0.0415136
0.0315984
0.0216916
0.0117928
0.00190152
-0.00798251
-0.0178598
-0.0277305
-0.0375951
-0.0474537
-0.0573067
-0.0671543
-0.0769967
-0.0868341
-0.0966668
-0.106495
-0.116319
-0.126138
-0.135953
-0.145765
-0.155571
-0.165372
-0.175153
0.175153
1.10843
1.10843
1.08657
1.05246
1.01561
0.979822
0.946637
0.916567
0.889536
0.865179
0.843029
0.822637
0.803624
0.785691
0.768615
0.752232
0.736423
0.721099
0.706195
0.691658
0.67745
0.663537
0.649893
0.636495
0.623322
0.610357
0.597584
0.58499
0.572562
0.560289
0.54816
0.536166
0.524298
0.512549
0.500911
0.489377
0.477941
0.466597
0.45534
0.444164
0.433066
0.422041
0.411084
0.400191
0.38936
0.378586
0.367867
0.3572
0.346581
0.336008
0.325479
0.314991
0.304542
0.294129
0.283752
0.273408
0.263094
0.252811
0.242555
0.232326
0.222122
0.211942
0.201785
0.191648
0.181532
0.171435
0.161356
0.151294
0.141248
0.131218
0.121202
0.1112
0.101211
0.0912341
0.0812691
0.0713152
0.0613717
0.0514382
0.0415141
0.0315988
0.021692
0.0117932
0.0019019
-0.00798217
-0.0178594
-0.0277302
-0.0375948
-0.0474534
-0.0573064
-0.067154
-0.0769965
-0.0868339
-0.0966666
-0.106495
-0.116318
-0.126138
-0.135953
-0.145764
-0.155571
-0.165371
-0.175148
0.175148
1.11013
1.11013
1.08712
1.05245
1.0154
0.979548
0.946364
0.916322
0.88933
0.865012
0.842897
0.822533
0.803541
0.785624
0.76856
0.752187
0.736385
0.721066
0.706165
0.691632
0.677427
0.663517
0.649875
0.636478
0.623306
0.610343
0.597571
0.584978
0.572551
0.560279
0.548151
0.536157
0.52429
0.512542
0.500904
0.48937
0.477935
0.466591
0.455335
0.44416
0.433062
0.422036
0.41108
0.400188
0.389357
0.378583
0.367864
0.357197
0.346578
0.336006
0.325476
0.314988
0.304539
0.294127
0.28375
0.273406
0.263093
0.252809
0.242554
0.232325
0.222121
0.211941
0.201783
0.191647
0.181531
0.171434
0.161355
0.151293
0.141247
0.131217
0.121201
0.111199
0.10121
0.0912335
0.0812686
0.0713147
0.0613712
0.0514378
0.0415136
0.0315984
0.0216916
0.0117928
0.00190154
-0.00798252
-0.0178598
-0.0277305
-0.0375951
-0.0474537
-0.0573067
-0.0671543
-0.0769967
-0.0868342
-0.0966668
-0.106495
-0.116319
-0.126138
-0.135953
-0.145765
-0.155571
-0.165372
-0.175153
0.175153
1.11545
1.11545
1.08874
1.05243
1.01481
0.978781
0.945594
0.915632
0.888752
0.864548
0.842532
0.822249
0.803319
0.785448
0.768418
0.752069
0.736285
0.720981
0.706092
0.691568
0.67737
0.663466
0.649829
0.636437
0.623269
0.610309
0.597541
0.58495
0.572526
0.560255
0.548129
0.536138
0.524272
0.512525
0.500888
0.489356
0.477921
0.466579
0.455323
0.444149
0.433052
0.422027
0.411071
0.400179
0.389349
0.378576
0.367858
0.357191
0.346572
0.336
0.325471
0.314984
0.304535
0.294123
0.283746
0.273402
0.263089
0.252806
0.242551
0.232322
0.222118
0.211938
0.201781
0.191645
0.181529
0.171432
0.161353
0.151291
0.141245
0.131215
0.1212
0.111198
0.101209
0.0912321
0.0812673
0.0713134
0.0613701
0.0514367
0.0415126
0.0315974
0.0216907
0.0117919
0.00190072
-0.0079833
-0.0178605
-0.0277312
-0.0375957
-0.0474543
-0.0573073
-0.0671549
-0.0769973
-0.0868347
-0.0966673
-0.106495
-0.116319
-0.126138
-0.135954
-0.145765
-0.155572
-0.165375
-0.175164
0.175164
1.12502
1.12502
1.09123
1.05232
1.01386
0.977586
0.944418
0.914596
0.887899
0.863875
0.842015
0.821854
0.803016
0.785213
0.768232
0.75192
0.736162
0.720878
0.706004
0.691492
0.677304
0.663408
0.649778
0.636391
0.623228
0.610272
0.597507
0.58492
0.572498
0.56023
0.548106
0.536117
0.524253
0.512507
0.500872
0.489341
0.477907
0.466566
0.455311
0.444138
0.433041
0.422017
0.411062
0.400171
0.389341
0.378569
0.367851
0.357184
0.346566
0.335994
0.325466
0.314979
0.30453
0.294119
0.283742
0.273398
0.263086
0.252803
0.242547
0.232319
0.222115
0.211936
0.201778
0.191642
0.181526
0.17143
0.161351
0.151289
0.141244
0.131213
0.121198
0.111196
0.101207
0.0912307
0.081266
0.0713122
0.0613689
0.0514356
0.0415115
0.0315964
0.0216898
0.011791
0.00189987
-0.0079841
-0.0178612
-0.0277319
-0.0375964
-0.047455
-0.0573079
-0.0671555
-0.0769978
-0.0868352
-0.0966678
-0.106496
-0.116319
-0.126139
-0.135954
-0.145766
-0.155573
-0.165377
-0.175174
0.175174
1.14
1.14
1.09411
1.05209
1.01274
0.976262
0.943157
0.913517
0.887037
0.863216
0.841523
0.82149
0.802745
0.785008
0.768074
0.751795
0.736061
0.720794
0.705933
0.691431
0.677251
0.663361
0.649736
0.636354
0.623195
0.610242
0.59748
0.584895
0.572476
0.56021
0.548087
0.536099
0.524237
0.512492
0.500858
0.489328
0.477896
0.466555
0.455301
0.444128
0.433032
0.422009
0.411054
0.400164
0.389334
0.378562
0.367845
0.357179
0.346561
0.335989
0.325461
0.314974
0.304526
0.294115
0.283738
0.273395
0.263082
0.252799
0.242545
0.232316
0.222113
0.211933
0.201776
0.19164
0.181524
0.171428
0.161349
0.151287
0.141242
0.131212
0.121197
0.111195
0.101206
0.0912295
0.0812648
0.0713111
0.0613679
0.0514346
0.0415106
0.0315955
0.0216889
0.0117902
0.00189913
-0.0079848
-0.0178619
-0.0277325
-0.037597
-0.0474555
-0.0573084
-0.067156
-0.0769983
-0.0868356
-0.0966682
-0.106496
-0.11632
-0.126139
-0.135954
-0.145766
-0.155573
-0.165378
-0.175179
0.175179
1.16094
1.16094
1.0961
1.05186
1.01204
0.975466
0.942414
0.912886
0.88653
0.862821
0.841219
0.821256
0.802563
0.784864
0.767957
0.751697
0.735978
0.720723
0.705871
0.691376
0.677201
0.663317
0.649696
0.636317
0.623161
0.610211
0.597452
0.584869
0.572451
0.560187
0.548067
0.53608
0.524219
0.512475
0.500843
0.489313
0.477882
0.466542
0.455289
0.444117
0.433022
0.421999
0.411045
0.400155
0.389326
0.378554
0.367837
0.357172
0.346555
0.335983
0.325455
0.314969
0.304521
0.29411
0.283734
0.27339
0.263078
0.252796
0.242541
0.232313
0.22211
0.21193
0.201773
0.191637
0.181522
0.171425
0.161347
0.151285
0.14124
0.13121
0.121195
0.111193
0.101204
0.091228
0.0812633
0.0713097
0.0613666
0.0514333
0.0415094
0.0315944
0.0216879
0.0117892
0.00189817
-0.00798571
-0.0178628
-0.0277334
-0.0375977
-0.0474562
-0.0573091
-0.0671566
-0.0769988
-0.0868361
-0.0966687
-0.106497
-0.11632
-0.126139
-0.135955
-0.145766
-0.155574
-0.165379
-0.17518
0.17518
1.16094
1.16094
1.0961
1.05186
1.01204
0.975466
0.942414
0.912886
0.88653
0.862821
0.841219
0.821256
0.802563
0.784864
0.767957
0.751697
0.735978
0.720723
0.705871
0.691376
0.677201
0.663317
0.649696
0.636317
0.623161
0.610211
0.597452
0.584869
0.572451
0.560187
0.548067
0.53608
0.524219
0.512475
0.500843
0.489313
0.477882
0.466542
0.455289
0.444117
0.433022
0.421999
0.411045
0.400155
0.389326
0.378554
0.367837
0.357172
0.346555
0.335983
0.325455
0.314969
0.304521
0.29411
0.283734
0.27339
0.263078
0.252796
0.242541
0.232313
0.22211
0.21193
0.201773
0.191637
0.181522
0.171425
0.161347
0.151285
0.14124
0.13121
0.121195
0.111193
0.101204
0.091228
0.0812633
0.0713097
0.0613666
0.0514333
0.0415094
0.0315944
0.0216879
0.0117892
0.00189817
-0.00798571
-0.0178628
-0.0277334
-0.0375977
-0.0474562
-0.0573091
-0.0671566
-0.0769988
-0.0868361
-0.0966687
-0.106497
-0.11632
-0.126139
-0.135955
-0.145766
-0.155574
-0.165379
-0.17518
0.17518
