# vtk DataFile Version 2.0
FlowField
ASCII
DATASET STRUCTURED_GRID
DIMENSIONS 102 1 12 
POINTS 1224 double
0 0 0
0.3 0 0
0.6 0 0
0.9 0 0
1.2 0 0
1.5 0 0
1.8 0 0
2.1 0 0
2.4 0 0
2.7 0 0
3 0 0
3.3 0 0
3.6 0 0
3.9 0 0
4.2 0 0
4.5 0 0
4.8 0 0
5.1 0 0
5.4 0 0
5.7 0 0
6 0 0
6.3 0 0
6.6 0 0
6.9 0 0
7.2 0 0
7.5 0 0
7.8 0 0
8.1 0 0
8.4 0 0
8.7 0 0
9 0 0
9.3 0 0
9.6 0 0
9.9 0 0
10.2 0 0
10.5 0 0
10.8 0 0
11.1 0 0
11.4 0 0
11.7 0 0
12 0 0
12.3 0 0
12.6 0 0
12.9 0 0
13.2 0 0
13.5 0 0
13.8 0 0
14.1 0 0
14.4 0 0
14.7 0 0
15 0 0
15.3 0 0
15.6 0 0
15.9 0 0
16.2 0 0
16.5 0 0
16.8 0 0
17.1 0 0
17.4 0 0
17.7 0 0
18 0 0
18.3 0 0
18.6 0 0
18.9 0 0
19.2 0 0
19.5 0 0
19.8 0 0
20.1 0 0
20.4 0 0
20.7 0 0
21 0 0
21.3 0 0
21.6 0 0
21.9 0 0
22.2 0 0
22.5 0 0
22.8 0 0
23.1 0 0
23.4 0 0
23.7 0 0
24 0 0
24.3 0 0
24.6 0 0
24.9 0 0
25.2 0 0
25.5 0 0
25.8 0 0
26.1 0 0
26.4 0 0
26.7 0 0
27 0 0
27.3 0 0
27.6 0 0
27.9 0 0
28.2 0 0
28.5 0 0
28.8 0 0
29.1 0 0
29.4 0 0
29.7 0 0
30 0 0
30.3 0 0
0 0.1 0
0.3 0.1 0
0.6 0.1 0
0.9 0.1 0
1.2 0.1 0
1.5 0.1 0
1.8 0.1 0
2.1 0.1 0
2.4 0.1 0
2.7 0.1 0
3 0.1 0
3.3 0.1 0
3.6 0.1 0
3.9 0.1 0
4.2 0.1 0
4.5 0.1 0
4.8 0.1 0
5.1 0.1 0
5.4 0.1 0
5.7 0.1 0
6 0.1 0
6.3 0.1 0
6.6 0.1 0
6.9 0.1 0
7.2 0.1 0
7.5 0.1 0
7.8 0.1 0
8.1 0.1 0
8.4 0.1 0
8.7 0.1 0
9 0.1 0
9.3 0.1 0
9.6 0.1 0
9.9 0.1 0
10.2 0.1 0
10.5 0.1 0
10.8 0.1 0
11.1 0.1 0
11.4 0.1 0
11.7 0.1 0
12 0.1 0
12.3 0.1 0
12.6 0.1 0
12.9 0.1 0
13.2 0.1 0
13.5 0.1 0
13.8 0.1 0
14.1 0.1 0
14.4 0.1 0
14.7 0.1 0
15 0.1 0
15.3 0.1 0
15.6 0.1 0
15.9 0.1 0
16.2 0.1 0
16.5 0.1 0
16.8 0.1 0
17.1 0.1 0
17.4 0.1 0
17.7 0.1 0
18 0.1 0
18.3 0.1 0
18.6 0.1 0
18.9 0.1 0
19.2 0.1 0
19.5 0.1 0
19.8 0.1 0
20.1 0.1 0
20.4 0.1 0
20.7 0.1 0
21 0.1 0
21.3 0.1 0
21.6 0.1 0
21.9 0.1 0
22.2 0.1 0
22.5 0.1 0
22.8 0.1 0
23.1 0.1 0
23.4 0.1 0
23.7 0.1 0
24 0.1 0
24.3 0.1 0
24.6 0.1 0
24.9 0.1 0
25.2 0.1 0
25.5 0.1 0
25.8 0.1 0
26.1 0.1 0
26.4 0.1 0
26.7 0.1 0
27 0.1 0
27.3 0.1 0
27.6 0.1 0
27.9 0.1 0
28.2 0.1 0
28.5 0.1 0
28.8 0.1 0
29.1 0.1 0
29.4 0.1 0
29.7 0.1 0
30 0.1 0
30.3 0.1 0
0 0.2 0
0.3 0.2 0
0.6 0.2 0
0.9 0.2 0
1.2 0.2 0
1.5 0.2 0
1.8 0.2 0
2.1 0.2 0
2.4 0.2 0
2.7 0.2 0
3 0.2 0
3.3 0.2 0
3.6 0.2 0
3.9 0.2 0
4.2 0.2 0
4.5 0.2 0
4.8 0.2 0
5.1 0.2 0
5.4 0.2 0
5.7 0.2 0
6 0.2 0
6.3 0.2 0
6.6 0.2 0
6.9 0.2 0
7.2 0.2 0
7.5 0.2 0
7.8 0.2 0
8.1 0.2 0
8.4 0.2 0
8.7 0.2 0
9 0.2 0
9.3 0.2 0
9.6 0.2 0
9.9 0.2 0
10.2 0.2 0
10.5 0.2 0
10.8 0.2 0
11.1 0.2 0
11.4 0.2 0
11.7 0.2 0
12 0.2 0
12.3 0.2 0
12.6 0.2 0
12.9 0.2 0
13.2 0.2 0
13.5 0.2 0
13.8 0.2 0
14.1 0.2 0
14.4 0.2 0
14.7 0.2 0
15 0.2 0
15.3 0.2 0
15.6 0.2 0
15.9 0.2 0
16.2 0.2 0
16.5 0.2 0
16.8 0.2 0
17.1 0.2 0
17.4 0.2 0
17.7 0.2 0
18 0.2 0
18.3 0.2 0
18.6 0.2 0
18.9 0.2 0
19.2 0.2 0
19.5 0.2 0
19.8 0.2 0
20.1 0.2 0
20.4 0.2 0
20.7 0.2 0
21 0.2 0
21.3 0.2 0
21.6 0.2 0
21.9 0.2 0
22.2 0.2 0
22.5 0.2 0
22.8 0.2 0
23.1 0.2 0
23.4 0.2 0
23.7 0.2 0
24 0.2 0
24.3 0.2 0
24.6 0.2 0
24.9 0.2 0
25.2 0.2 0
25.5 0.2 0
25.8 0.2 0
26.1 0.2 0
26.4 0.2 0
26.7 0.2 0
27 0.2 0
27.3 0.2 0
27.6 0.2 0
27.9 0.2 0
28.2 0.2 0
28.5 0.2 0
28.8 0.2 0
29.1 0.2 0
29.4 0.2 0
29.7 0.2 0
30 0.2 0
30.3 0.2 0
0 0.3 0
0.3 0.3 0
0.6 0.3 0
0.9 0.3 0
1.2 0.3 0
1.5 0.3 0
1.8 0.3 0
2.1 0.3 0
2.4 0.3 0
2.7 0.3 0
3 0.3 0
3.3 0.3 0
3.6 0.3 0
3.9 0.3 0
4.2 0.3 0
4.5 0.3 0
4.8 0.3 0
5.1 0.3 0
5.4 0.3 0
5.7 0.3 0
6 0.3 0
6.3 0.3 0
6.6 0.3 0
6.9 0.3 0
7.2 0.3 0
7.5 0.3 0
7.8 0.3 0
8.1 0.3 0
8.4 0.3 0
8.7 0.3 0
9 0.3 0
9.3 0.3 0
9.6 0.3 0
9.9 0.3 0
10.2 0.3 0
10.5 0.3 0
10.8 0.3 0
11.1 0.3 0
11.4 0.3 0
11.7 0.3 0
12 0.3 0
12.3 0.3 0
12.6 0.3 0
12.9 0.3 0
13.2 0.3 0
13.5 0.3 0
13.8 0.3 0
14.1 0.3 0
14.4 0.3 0
14.7 0.3 0
15 0.3 0
15.3 0.3 0
15.6 0.3 0
15.9 0.3 0
16.2 0.3 0
16.5 0.3 0
16.8 0.3 0
17.1 0.3 0
17.4 0.3 0
17.7 0.3 0
18 0.3 0
18.3 0.3 0
18.6 0.3 0
18.9 0.3 0
19.2 0.3 0
19.5 0.3 0
19.8 0.3 0
20.1 0.3 0
20.4 0.3 0
20.7 0.3 0
21 0.3 0
21.3 0.3 0
21.6 0.3 0
21.9 0.3 0
22.2 0.3 0
22.5 0.3 0
22.8 0.3 0
23.1 0.3 0
23.4 0.3 0
23.7 0.3 0
24 0.3 0
24.3 0.3 0
24.6 0.3 0
24.9 0.3 0
25.2 0.3 0
25.5 0.3 0
25.8 0.3 0
26.1 0.3 0
26.4 0.3 0
26.7 0.3 0
27 0.3 0
27.3 0.3 0
27.6 0.3 0
27.9 0.3 0
28.2 0.3 0
28.5 0.3 0
28.8 0.3 0
29.1 0.3 0
29.4 0.3 0
29.7 0.3 0
30 0.3 0
30.3 0.3 0
0 0.4 0
0.3 0.4 0
0.6 0.4 0
0.9 0.4 0
1.2 0.4 0
1.5 0.4 0
1.8 0.4 0
2.1 0.4 0
2.4 0.4 0
2.7 0.4 0
3 0.4 0
3.3 0.4 0
3.6 0.4 0
3.9 0.4 0
4.2 0.4 0
4.5 0.4 0
4.8 0.4 0
5.1 0.4 0
5.4 0.4 0
5.7 0.4 0
6 0.4 0
6.3 0.4 0
6.6 0.4 0
6.9 0.4 0
7.2 0.4 0
7.5 0.4 0
7.8 0.4 0
8.1 0.4 0
8.4 0.4 0
8.7 0.4 0
9 0.4 0
9.3 0.4 0
9.6 0.4 0
9.9 0.4 0
10.2 0.4 0
10.5 0.4 0
10.8 0.4 0
11.1 0.4 0
11.4 0.4 0
11.7 0.4 0
12 0.4 0
12.3 0.4 0
12.6 0.4 0
12.9 0.4 0
13.2 0.4 0
13.5 0.4 0
13.8 0.4 0
14.1 0.4 0
14.4 0.4 0
14.7 0.4 0
15 0.4 0
15.3 0.4 0
15.6 0.4 0
15.9 0.4 0
16.2 0.4 0
16.5 0.4 0
16.8 0.4 0
17.1 0.4 0
17.4 0.4 0
17.7 0.4 0
18 0.4 0
18.3 0.4 0
18.6 0.4 0
18.9 0.4 0
19.2 0.4 0
19.5 0.4 0
19.8 0.4 0
20.1 0.4 0
20.4 0.4 0
20.7 0.4 0
21 0.4 0
21.3 0.4 0
21.6 0.4 0
21.9 0.4 0
22.2 0.4 0
22.5 0.4 0
22.8 0.4 0
23.1 0.4 0
23.4 0.4 0
23.7 0.4 0
24 0.4 0
24.3 0.4 0
24.6 0.4 0
24.9 0.4 0
25.2 0.4 0
25.5 0.4 0
25.8 0.4 0
26.1 0.4 0
26.4 0.4 0
26.7 0.4 0
27 0.4 0
27.3 0.4 0
27.6 0.4 0
27.9 0.4 0
28.2 0.4 0
28.5 0.4 0
28.8 0.4 0
29.1 0.4 0
29.4 0.4 0
29.7 0.4 0
30 0.4 0
30.3 0.4 0
0 0.5 0
0.3 0.5 0
0.6 0.5 0
0.9 0.5 0
1.2 0.5 0
1.5 0.5 0
1.8 0.5 0
2.1 0.5 0
2.4 0.5 0
2.7 0.5 0
3 0.5 0
3.3 0.5 0
3.6 0.5 0
3.9 0.5 0
4.2 0.5 0
4.5 0.5 0
4.8 0.5 0
5.1 0.5 0
5.4 0.5 0
5.7 0.5 0
6 0.5 0
6.3 0.5 0
6.6 0.5 0
6.9 0.5 0
7.2 0.5 0
7.5 0.5 0
7.8 0.5 0
8.1 0.5 0
8.4 0.5 0
8.7 0.5 0
9 0.5 0
9.3 0.5 0
9.6 0.5 0
9.9 0.5 0
10.2 0.5 0
10.5 0.5 0
10.8 0.5 0
11.1 0.5 0
11.4 0.5 0
11.7 0.5 0
12 0.5 0
12.3 0.5 0
12.6 0.5 0
12.9 0.5 0
13.2 0.5 0
13.5 0.5 0
13.8 0.5 0
14.1 0.5 0
14.4 0.5 0
14.7 0.5 0
15 0.5 0
15.3 0.5 0
15.6 0.5 0
15.9 0.5 0
16.2 0.5 0
16.5 0.5 0
16.8 0.5 0
17.1 0.5 0
17.4 0.5 0
17.7 0.5 0
18 0.5 0
18.3 0.5 0
18.6 0.5 0
18.9 0.5 0
19.2 0.5 0
19.5 0.5 0
19.8 0.5 0
20.1 0.5 0
20.4 0.5 0
20.7 0.5 0
21 0.5 0
21.3 0.5 0
21.6 0.5 0
21.9 0.5 0
22.2 0.5 0
22.5 0.5 0
22.8 0.5 0
23.1 0.5 0
23.4 0.5 0
23.7 0.5 0
24 0.5 0
24.3 0.5 0
24.6 0.5 0
24.9 0.5 0
25.2 0.5 0
25.5 0.5 0
25.8 0.5 0
26.1 0.5 0
26.4 0.5 0
26.7 0.5 0
27 0.5 0
27.3 0.5 0
27.6 0.5 0
27.9 0.5 0
28.2 0.5 0
28.5 0.5 0
28.8 0.5 0
29.1 0.5 0
29.4 0.5 0
29.7 0.5 0
30 0.5 0
30.3 0.5 0
0 0.6 0
0.3 0.6 0
0.6 0.6 0
0.9 0.6 0
1.2 0.6 0
1.5 0.6 0
1.8 0.6 0
2.1 0.6 0
2.4 0.6 0
2.7 0.6 0
3 0.6 0
3.3 0.6 0
3.6 0.6 0
3.9 0.6 0
4.2 0.6 0
4.5 0.6 0
4.8 0.6 0
5.1 0.6 0
5.4 0.6 0
5.7 0.6 0
6 0.6 0
6.3 0.6 0
6.6 0.6 0
6.9 0.6 0
7.2 0.6 0
7.5 0.6 0
7.8 0.6 0
8.1 0.6 0
8.4 0.6 0
8.7 0.6 0
9 0.6 0
9.3 0.6 0
9.6 0.6 0
9.9 0.6 0
10.2 0.6 0
10.5 0.6 0
10.8 0.6 0
11.1 0.6 0
11.4 0.6 0
11.7 0.6 0
12 0.6 0
12.3 0.6 0
12.6 0.6 0
12.9 0.6 0
13.2 0.6 0
13.5 0.6 0
13.8 0.6 0
14.1 0.6 0
14.4 0.6 0
14.7 0.6 0
15 0.6 0
15.3 0.6 0
15.6 0.6 0
15.9 0.6 0
16.2 0.6 0
16.5 0.6 0
16.8 0.6 0
17.1 0.6 0
17.4 0.6 0
17.7 0.6 0
18 0.6 0
18.3 0.6 0
18.6 0.6 0
18.9 0.6 0
19.2 0.6 0
19.5 0.6 0
19.8 0.6 0
20.1 0.6 0
20.4 0.6 0
20.7 0.6 0
21 0.6 0
21.3 0.6 0
21.6 0.6 0
21.9 0.6 0
22.2 0.6 0
22.5 0.6 0
22.8 0.6 0
23.1 0.6 0
23.4 0.6 0
23.7 0.6 0
24 0.6 0
24.3 0.6 0
24.6 0.6 0
24.9 0.6 0
25.2 0.6 0
25.5 0.6 0
25.8 0.6 0
26.1 0.6 0
26.4 0.6 0
26.7 0.6 0
27 0.6 0
27.3 0.6 0
27.6 0.6 0
27.9 0.6 0
28.2 0.6 0
28.5 0.6 0
28.8 0.6 0
29.1 0.6 0
29.4 0.6 0
29.7 0.6 0
30 0.6 0
30.3 0.6 0
0 0.7 0
0.3 0.7 0
0.6 0.7 0
0.9 0.7 0
1.2 0.7 0
1.5 0.7 0
1.8 0.7 0
2.1 0.7 0
2.4 0.7 0
2.7 0.7 0
3 0.7 0
3.3 0.7 0
3.6 0.7 0
3.9 0.7 0
4.2 0.7 0
4.5 0.7 0
4.8 0.7 0
5.1 0.7 0
5.4 0.7 0
5.7 0.7 0
6 0.7 0
6.3 0.7 0
6.6 0.7 0
6.9 0.7 0
7.2 0.7 0
7.5 0.7 0
7.8 0.7 0
8.1 0.7 0
8.4 0.7 0
8.7 0.7 0
9 0.7 0
9.3 0.7 0
9.6 0.7 0
9.9 0.7 0
10.2 0.7 0
10.5 0.7 0
10.8 0.7 0
11.1 0.7 0
11.4 0.7 0
11.7 0.7 0
12 0.7 0
12.3 0.7 0
12.6 0.7 0
12.9 0.7 0
13.2 0.7 0
13.5 0.7 0
13.8 0.7 0
14.1 0.7 0
14.4 0.7 0
14.7 0.7 0
15 0.7 0
15.3 0.7 0
15.6 0.7 0
15.9 0.7 0
16.2 0.7 0
16.5 0.7 0
16.8 0.7 0
17.1 0.7 0
17.4 0.7 0
17.7 0.7 0
18 0.7 0
18.3 0.7 0
18.6 0.7 0
18.9 0.7 0
19.2 0.7 0
19.5 0.7 0
19.8 0.7 0
20.1 0.7 0
20.4 0.7 0
20.7 0.7 0
21 0.7 0
21.3 0.7 0
21.6 0.7 0
21.9 0.7 0
22.2 0.7 0
22.5 0.7 0
22.8 0.7 0
23.1 0.7 0
23.4 0.7 0
23.7 0.7 0
24 0.7 0
24.3 0.7 0
24.6 0.7 0
24.9 0.7 0
25.2 0.7 0
25.5 0.7 0
25.8 0.7 0
26.1 0.7 0
26.4 0.7 0
26.7 0.7 0
27 0.7 0
27.3 0.7 0
27.6 0.7 0
27.9 0.7 0
28.2 0.7 0
28.5 0.7 0
28.8 0.7 0
29.1 0.7 0
29.4 0.7 0
29.7 0.7 0
30 0.7 0
30.3 0.7 0
0 0.8 0
0.3 0.8 0
0.6 0.8 0
0.9 0.8 0
1.2 0.8 0
1.5 0.8 0
1.8 0.8 0
2.1 0.8 0
2.4 0.8 0
2.7 0.8 0
3 0.8 0
3.3 0.8 0
3.6 0.8 0
3.9 0.8 0
4.2 0.8 0
4.5 0.8 0
4.8 0.8 0
5.1 0.8 0
5.4 0.8 0
5.7 0.8 0
6 0.8 0
6.3 0.8 0
6.6 0.8 0
6.9 0.8 0
7.2 0.8 0
7.5 0.8 0
7.8 0.8 0
8.1 0.8 0
8.4 0.8 0
8.7 0.8 0
9 0.8 0
9.3 0.8 0
9.6 0.8 0
9.9 0.8 0
10.2 0.8 0
10.5 0.8 0
10.8 0.8 0
11.1 0.8 0
11.4 0.8 0
11.7 0.8 0
12 0.8 0
12.3 0.8 0
12.6 0.8 0
12.9 0.8 0
13.2 0.8 0
13.5 0.8 0
13.8 0.8 0
14.1 0.8 0
14.4 0.8 0
14.7 0.8 0
15 0.8 0
15.3 0.8 0
15.6 0.8 0
15.9 0.8 0
16.2 0.8 0
16.5 0.8 0
16.8 0.8 0
17.1 0.8 0
17.4 0.8 0
17.7 0.8 0
18 0.8 0
18.3 0.8 0
18.6 0.8 0
18.9 0.8 0
19.2 0.8 0
19.5 0.8 0
19.8 0.8 0
20.1 0.8 0
20.4 0.8 0
20.7 0.8 0
21 0.8 0
21.3 0.8 0
21.6 0.8 0
21.9 0.8 0
22.2 0.8 0
22.5 0.8 0
22.8 0.8 0
23.1 0.8 0
23.4 0.8 0
23.7 0.8 0
24 0.8 0
24.3 0.8 0
24.6 0.8 0
24.9 0.8 0
25.2 0.8 0
25.5 0.8 0
25.8 0.8 0
26.1 0.8 0
26.4 0.8 0
26.7 0.8 0
27 0.8 0
27.3 0.8 0
27.6 0.8 0
27.9 0.8 0
28.2 0.8 0
28.5 0.8 0
28.8 0.8 0
29.1 0.8 0
29.4 0.8 0
29.7 0.8 0
30 0.8 0
30.3 0.8 0
0 0.9 0
0.3 0.9 0
0.6 0.9 0
0.9 0.9 0
1.2 0.9 0
1.5 0.9 0
1.8 0.9 0
2.1 0.9 0
2.4 0.9 0
2.7 0.9 0
3 0.9 0
3.3 0.9 0
3.6 0.9 0
3.9 0.9 0
4.2 0.9 0
4.5 0.9 0
4.8 0.9 0
5.1 0.9 0
5.4 0.9 0
5.7 0.9 0
6 0.9 0
6.3 0.9 0
6.6 0.9 0
6.9 0.9 0
7.2 0.9 0
7.5 0.9 0
7.8 0.9 0
8.1 0.9 0
8.4 0.9 0
8.7 0.9 0
9 0.9 0
9.3 0.9 0
9.6 0.9 0
9.9 0.9 0
10.2 0.9 0
10.5 0.9 0
10.8 0.9 0
11.1 0.9 0
11.4 0.9 0
11.7 0.9 0
12 0.9 0
12.3 0.9 0
12.6 0.9 0
12.9 0.9 0
13.2 0.9 0
13.5 0.9 0
13.8 0.9 0
14.1 0.9 0
14.4 0.9 0
14.7 0.9 0
15 0.9 0
15.3 0.9 0
15.6 0.9 0
15.9 0.9 0
16.2 0.9 0
16.5 0.9 0
16.8 0.9 0
17.1 0.9 0
17.4 0.9 0
17.7 0.9 0
18 0.9 0
18.3 0.9 0
18.6 0.9 0
18.9 0.9 0
19.2 0.9 0
19.5 0.9 0
19.8 0.9 0
20.1 0.9 0
20.4 0.9 0
20.7 0.9 0
21 0.9 0
21.3 0.9 0
21.6 0.9 0
21.9 0.9 0
22.2 0.9 0
22.5 0.9 0
22.8 0.9 0
23.1 0.9 0
23.4 0.9 0
23.7 0.9 0
24 0.9 0
24.3 0.9 0
24.6 0.9 0
24.9 0.9 0
25.2 0.9 0
25.5 0.9 0
25.8 0.9 0
26.1 0.9 0
26.4 0.9 0
26.7 0.9 0
27 0.9 0
27.3 0.9 0
27.6 0.9 0
27.9 0.9 0
28.2 0.9 0
28.5 0.9 0
28.8 0.9 0
29.1 0.9 0
29.4 0.9 0
29.7 0.9 0
30 0.9 0
30.3 0.9 0
0 1 0
0.3 1 0
0.6 1 0
0.9 1 0
1.2 1 0
1.5 1 0
1.8 1 0
2.1 1 0
2.4 1 0
2.7 1 0
3 1 0
3.3 1 0
3.6 1 0
3.9 1 0
4.2 1 0
4.5 1 0
4.8 1 0
5.1 1 0
5.4 1 0
5.7 1 0
6 1 0
6.3 1 0
6.6 1 0
6.9 1 0
7.2 1 0
7.5 1 0
7.8 1 0
8.1 1 0
8.4 1 0
8.7 1 0
9 1 0
9.3 1 0
9.6 1 0
9.9 1 0
10.2 1 0
10.5 1 0
10.8 1 0
11.1 1 0
11.4 1 0
11.7 1 0
12 1 0
12.3 1 0
12.6 1 0
12.9 1 0
13.2 1 0
13.5 1 0
13.8 1 0
14.1 1 0
14.4 1 0
14.7 1 0
15 1 0
15.3 1 0
15.6 1 0
15.9 1 0
16.2 1 0
16.5 1 0
16.8 1 0
17.1 1 0
17.4 1 0
17.7 1 0
18 1 0
18.3 1 0
18.6 1 0
18.9 1 0
19.2 1 0
19.5 1 0
19.8 1 0
20.1 1 0
20.4 1 0
20.7 1 0
21 1 0
21.3 1 0
21.6 1 0
21.9 1 0
22.2 1 0
22.5 1 0
22.8 1 0
23.1 1 0
23.4 1 0
23.7 1 0
24 1 0
24.3 1 0
24.6 1 0
24.9 1 0
25.2 1 0
25.5 1 0
25.8 1 0
26.1 1 0
26.4 1 0
26.7 1 0
27 1 0
27.3 1 0
27.6 1 0
27.9 1 0
28.2 1 0
28.5 1 0
28.8 1 0
29.1 1 0
29.4 1 0
29.7 1 0
30 1 0
30.3 1 0
0 1.1 0
0.3 1.1 0
0.6 1.1 0
0.9 1.1 0
1.2 1.1 0
1.5 1.1 0
1.8 1.1 0
2.1 1.1 0
2.4 1.1 0
2.7 1.1 0
3 1.1 0
3.3 1.1 0
3.6 1.1 0
3.9 1.1 0
4.2 1.1 0
4.5 1.1 0
4.8 1.1 0
5.1 1.1 0
5.4 1.1 0
5.7 1.1 0
6 1.1 0
6.3 1.1 0
6.6 1.1 0
6.9 1.1 0
7.2 1.1 0
7.5 1.1 0
7.8 1.1 0
8.1 1.1 0
8.4 1.1 0
8.7 1.1 0
9 1.1 0
9.3 1.1 0
9.6 1.1 0
9.9 1.1 0
10.2 1.1 0
10.5 1.1 0
10.8 1.1 0
11.1 1.1 0
11.4 1.1 0
11.7 1.1 0
12 1.1 0
12.3 1.1 0
12.6 1.1 0
12.9 1.1 0
13.2 1.1 0
13.5 1.1 0
13.8 1.1 0
14.1 1.1 0
14.4 1.1 0
14.7 1.1 0
15 1.1 0
15.3 1.1 0
15.6 1.1 0
15.9 1.1 0
16.2 1.1 0
16.5 1.1 0
16.8 1.1 0
17.1 1.1 0
17.4 1.1 0
17.7 1.1 0
18 1.1 0
18.3 1.1 0
18.6 1.1 0
18.9 1.1 0
19.2 1.1 0
19.5 1.1 0
19.8 1.1 0
20.1 1.1 0
20.4 1.1 0
20.7 1.1 0
21 1.1 0
21.3 1.1 0
21.6 1.1 0
21.9 1.1 0
22.2 1.1 0
22.5 1.1 0
22.8 1.1 0
23.1 1.1 0
23.4 1.1 0
23.7 1.1 0
24 1.1 0
24.3 1.1 0
24.6 1.1 0
24.9 1.1 0
25.2 1.1 0
25.5 1.1 0
25.8 1.1 0
26.1 1.1 0
26.4 1.1 0
26.7 1.1 0
27 1.1 0
27.3 1.1 0
27.6 1.1 0
27.9 1.1 0
28.2 1.1 0
28.5 1.1 0
28.8 1.1 0
29.1 1.1 0
29.4 1.1 0
29.7 1.1 0
30 1.1 0
30.3 1.1 0

POINT_DATA 1224

SCALARS phi double
LOOKUP_TABLE default
0.999997
1
0.999986
0.999856
0.999429
0.99847
0.99678
0.994238
0.990799
0.986475
0.981316
0.975395
0.968799
0.961621
0.953954
0.945885
0.937499
0.928869
0.920063
0.911138
0.902148
0.893134
0.884134
0.87518
0.866298
0.857509
0.848833
0.840282
0.831869
0.823603
0.81549
0.807537
0.799747
0.792122
0.784664
0.777373
0.77025
0.763292
0.756498
0.749867
0.743395
0.737079
0.730915
0.724899
0.719025
0.713288
0.707679
0.702193
0.696819
0.691549
0.686371
0.681275
0.676248
0.671277
0.66635
0.661451
0.656567
0.651684
0.646787
0.641862
0.636896
0.631875
0.626787
0.62162
0.616363
0.611006
0.605542
0.59996
0.594256
0.588423
0.582457
0.576354
0.570112
0.563729
0.557204
0.550537
0.543729
0.536782
0.529696
0.522475
0.515121
0.507637
0.500027
0.492295
0.484443
0.476477
0.468399
0.460215
0.451928
0.443543
0.435064
0.426495
0.417841
0.409107
0.400297
0.39142
0.382463
0.373498
0.364291
0.355733
0.34442
0.34442
0.999997
1
0.999986
0.999856
0.999429
0.99847
0.99678
0.994238
0.990799
0.986475
0.981316
0.975395
0.968799
0.961621
0.953954
0.945885
0.937499
0.928869
0.920063
0.911138
0.902148
0.893134
0.884134
0.87518
0.866298
0.857509
0.848833
0.840282
0.831869
0.823603
0.81549
0.807537
0.799747
0.792122
0.784664
0.777373
0.77025
0.763292
0.756498
0.749867
0.743395
0.737079
0.730915
0.724899
0.719025
0.713288
0.707679
0.702193
0.696819
0.691549
0.686371
0.681275
0.676248
0.671277
0.66635
0.661451
0.656567
0.651684
0.646787
0.641862
0.636896
0.631875
0.626787
0.62162
0.616363
0.611006
0.605542
0.59996
0.594256
0.588423
0.582457
0.576354
0.570112
0.563729
0.557204
0.550537
0.543729
0.536782
0.529696
0.522475
0.515121
0.507637
0.500027
0.492295
0.484443
0.476477
0.468399
0.460215
0.451928
0.443543
0.435064
0.426495
0.417841
0.409107
0.400297
0.39142
0.382463
0.373498
0.364291
0.355733
0.34442
0.34442
0.999991
1.00001
0.999806
0.999198
0.997961
0.995905
0.992926
0.989008
0.984195
0.978566
0.972214
0.965241
0.957742
0.949813
0.941537
0.932993
0.924249
0.915368
0.906401
0.897394
0.888388
0.879414
0.870502
0.861673
0.852949
0.844343
0.83587
0.827539
0.819358
0.811334
0.80347
0.79577
0.788236
0.780868
0.773667
0.766632
0.759763
0.753057
0.746513
0.740127
0.733899
0.727823
0.721898
0.716118
0.71048
0.704978
0.699609
0.694364
0.689239
0.684225
0.679314
0.674498
0.669767
0.665111
0.66052
0.655981
0.651483
0.647014
0.642561
0.638112
0.633654
0.629175
0.624662
0.620104
0.61549
0.610808
0.606049
0.601204
0.596264
0.591221
0.586069
0.580802
0.575415
0.569904
0.564265
0.558495
0.552594
0.54656
0.540392
0.53409
0.527654
0.521086
0.514387
0.507559
0.500603
0.493522
0.486317
0.478993
0.47155
0.463992
0.456322
0.448543
0.440658
0.432671
0.424584
0.416407
0.408118
0.399811
0.391179
0.383327
0.372315
0.372315
1.00019
0.999812
0.997464
0.993419
0.987789
0.980769
0.972643
0.963715
0.954249
0.944451
0.934478
0.924439
0.914415
0.904462
0.89462
0.884916
0.875371
0.865997
0.856805
0.847798
0.838982
0.830357
0.821925
0.813684
0.805635
0.797774
0.790101
0.782613
0.775306
0.768179
0.761227
0.754449
0.74784
0.741397
0.735116
0.728995
0.72303
0.717217
0.711553
0.706034
0.700656
0.695417
0.690313
0.685339
0.680493
0.67577
0.671166
0.666677
0.662298
0.658024
0.65385
0.64977
0.645777
0.641865
0.638027
0.634253
0.630538
0.62687
0.623242
0.619644
0.616067
0.612499
0.608931
0.605354
0.601757
0.59813
0.594463
0.590748
0.586974
0.583135
0.57922
0.575224
0.571138
0.566957
0.562674
0.558284
0.553783
0.549165
0.544428
0.539568
0.534583
0.52947
0.524227
0.518854
0.513348
0.507709
0.501937
0.496031
0.489991
0.483818
0.477511
0.471072
0.4645
0.457799
0.450966
0.444011
0.436906
0.429755
0.422215
0.41545
0.405564
0.405564
1.00542
0.994581
0.97508
0.954125
0.933452
0.913655
0.895039
0.877742
0.861776
0.84707
0.833512
0.820982
0.809362
0.798543
0.78843
0.77894
0.770002
0.761554
0.753544
0.745926
0.738662
0.731717
0.725064
0.718677
0.712536
0.706621
0.700915
0.695406
0.690081
0.684928
0.679937
0.675101
0.670411
0.665861
0.661444
0.657154
0.652987
0.648937
0.645001
0.641173
0.637451
0.63383
0.630307
0.62688
0.623544
0.620297
0.617136
0.614057
0.611058
0.608135
0.605286
0.602506
0.599792
0.59714
0.594546
0.592005
0.589513
0.587063
0.584651
0.58227
0.579915
0.577579
0.575254
0.572934
0.570611
0.568279
0.565929
0.563553
0.561145
0.558696
0.556199
0.553646
0.55103
0.548344
0.545582
0.542735
0.539798
0.536765
0.53363
0.530387
0.527032
0.523558
0.519962
0.516238
0.512383
0.508393
0.504265
0.499994
0.495578
0.491014
0.486299
0.481431
0.476407
0.471227
0.465886
0.460391
0.454712
0.448949
0.442771
0.437249
0.428924
0.428924
1.08202
0.91798
0.823015
0.765284
0.727175
0.700189
0.68008
0.66452
0.652111
0.641956
0.633457
0.626199
0.619896
0.614339
0.609379
0.604903
0.600826
0.597084
0.593624
0.590405
0.587396
0.584568
0.581901
0.579375
0.576975
0.574688
0.572504
0.570412
0.568405
0.566476
0.564618
0.562828
0.561099
0.559429
0.557813
0.556249
0.554734
0.553264
0.551839
0.550456
0.549113
0.547809
0.546542
0.54531
0.544112
0.542947
0.541814
0.540712
0.539638
0.538593
0.537574
0.536581
0.535611
0.534664
0.533738
0.53283
0.531938
0.531061
0.530195
0.529338
0.528487
0.527637
0.526786
0.525929
0.525062
0.52418
0.523278
0.522352
0.521394
0.520401
0.519366
0.518282
0.517144
0.515945
0.514679
0.513338
0.511917
0.510409
0.508806
0.507103
0.505291
0.503366
0.501319
0.499146
0.496838
0.49439
0.491796
0.489049
0.486145
0.483077
0.479841
0.476431
0.472842
0.469071
0.465111
0.460967
0.456607
0.452122
0.447212
0.442813
0.435969
0.435969
-0.0820204
0.0820204
0.176985
0.234716
0.272825
0.299811
0.31992
0.33548
0.347889
0.358044
0.366543
0.373801
0.380104
0.385661
0.390621
0.395097
0.399174
0.402916
0.406376
0.409595
0.412604
0.415432
0.418099
0.420625
0.423025
0.425312
0.427496
0.429588
0.431595
0.433524
0.435382
0.437172
0.438901
0.440571
0.442187
0.443751
0.445266
0.446736
0.448161
0.449544
0.450887
0.452191
0.453458
0.45469
0.455887
0.457051
0.458184
0.459285
0.460356
0.461398
0.462411
0.463396
0.464354
0.465285
0.46619
0.467068
0.46792
0.468745
0.469543
0.470313
0.471054
0.471766
0.472446
0.473093
0.473704
0.474278
0.474811
0.4753
0.475741
0.476131
0.476465
0.476737
0.476944
0.477079
0.477137
0.47711
0.476993
0.476779
0.476461
0.476031
0.475481
0.474805
0.473994
0.47304
0.471936
0.470673
0.469245
0.467643
0.46586
0.463888
0.461722
0.459354
0.456777
0.453988
0.450977
0.44775
0.444273
0.440629
0.436548
0.432864
0.426963
0.426963
-0.00541873
0.00541873
0.0249201
0.0458753
0.0665479
0.0863449
0.104961
0.122258
0.138224
0.15293
0.166488
0.179018
0.190638
0.201457
0.21157
0.22106
0.229998
0.238446
0.246456
0.254074
0.261338
0.268283
0.274936
0.281323
0.287464
0.293379
0.299085
0.304594
0.309919
0.315072
0.320063
0.324899
0.329589
0.334139
0.338556
0.342846
0.347013
0.351063
0.354999
0.358827
0.362549
0.36617
0.369692
0.373119
0.376454
0.379699
0.382857
0.385931
0.388923
0.391836
0.394671
0.397431
0.400117
0.402732
0.405276
0.407752
0.41016
0.412502
0.414778
0.41699
0.419136
0.421218
0.423235
0.425186
0.42707
0.428885
0.43063
0.432301
0.433896
0.435411
0.436842
0.438185
0.439434
0.440584
0.441628
0.44256
0.443372
0.444058
0.44461
0.445019
0.445276
0.445375
0.445305
0.445058
0.444625
0.443998
0.443168
0.442127
0.440866
0.43938
0.437659
0.435699
0.433492
0.431034
0.428318
0.425347
0.422094
0.418637
0.414716
0.411147
0.405368
0.405368
-0.000187534
0.000187534
0.00253635
0.00658088
0.0122109
0.0192313
0.0273566
0.0362847
0.0457513
0.0555485
0.0655222
0.075561
0.0855851
0.0955382
0.10538
0.115084
0.124629
0.134003
0.143195
0.152202
0.161018
0.169643
0.178075
0.186316
0.194365
0.202226
0.209899
0.217387
0.224694
0.231821
0.238773
0.245551
0.25216
0.258603
0.264884
0.271005
0.27697
0.282783
0.288447
0.293966
0.299343
0.304581
0.309684
0.314655
0.319497
0.324214
0.328808
0.333283
0.337641
0.341885
0.346018
0.350043
0.353962
0.357777
0.36149
0.365104
0.36862
0.372039
0.375362
0.37859
0.381724
0.384763
0.387706
0.390554
0.393303
0.395952
0.398498
0.400938
0.403268
0.405482
0.407577
0.409545
0.411381
0.413078
0.414628
0.416022
0.417254
0.418313
0.419192
0.41988
0.420369
0.420648
0.42071
0.420545
0.420144
0.419499
0.418601
0.417444
0.416021
0.414324
0.41235
0.410093
0.40755
0.404719
0.401595
0.398185
0.394465
0.390515
0.386081
0.382006
0.375559
0.375559
9.11926e-06
-9.11926e-06
0.000194127
0.000801507
0.00203892
0.00409543
0.00707416
0.010992
0.015805
0.0214344
0.0277857
0.0347594
0.0422575
0.0501873
0.0584631
0.0670073
0.0757507
0.0846324
0.0935993
0.102606
0.111612
0.120586
0.129498
0.138327
0.147051
0.155657
0.16413
0.172461
0.180642
0.188666
0.19653
0.20423
0.211764
0.219132
0.226333
0.233368
0.240237
0.246943
0.253487
0.259871
0.266098
0.272171
0.278092
0.283864
0.28949
0.294973
0.300316
0.305522
0.310594
0.315535
0.320348
0.325034
0.329596
0.334038
0.338359
0.342563
0.346649
0.35062
0.354474
0.358213
0.361836
0.36534
0.368725
0.371987
0.375124
0.378132
0.381005
0.383738
0.386326
0.388762
0.391038
0.393146
0.395078
0.396824
0.398376
0.399724
0.400858
0.401768
0.402444
0.402876
0.403055
0.402972
0.402617
0.401983
0.401062
0.399847
0.398332
0.396512
0.394383
0.391942
0.389188
0.386119
0.382736
0.37904
0.375033
0.370725
0.3661
0.361233
0.355897
0.350916
0.343447
0.343447
2.58893e-06
-2.58893e-06
1.40367e-05
0.000143873
0.000571454
0.00153022
0.00322002
0.00576194
0.00920072
0.0135245
0.0186837
0.0246047
0.0312006
0.0383787
0.0460463
0.0541147
0.0625013
0.0711311
0.0799374
0.0888615
0.0978524
0.106866
0.115866
0.12482
0.133702
0.142491
0.151167
0.159718
0.168131
0.176397
0.18451
0.192463
0.200253
0.207878
0.215336
0.222626
0.22975
0.236707
0.2435
0.250129
0.256597
0.262907
0.26906
0.27506
0.280909
0.28661
0.292166
0.29758
0.302854
0.307992
0.312995
0.317867
0.322608
0.32722
0.331706
0.336065
0.340299
0.344406
0.348387
0.35224
0.355962
0.359552
0.363005
0.366318
0.369485
0.3725
0.375357
0.378048
0.380567
0.382903
0.385047
0.386991
0.388723
0.390234
0.391513
0.39255
0.393333
0.393853
0.394099
0.394062
0.393733
0.393104
0.392166
0.390914
0.389342
0.387445
0.38522
0.382663
0.379776
0.376556
0.373007
0.369131
0.364932
0.360416
0.355589
0.350462
0.345029
0.339355
0.33326
0.327444
0.319338
0.319338
2.58893e-06
-2.58893e-06
1.40367e-05
0.000143873
0.000571454
0.00153022
0.00322002
0.00576194
0.00920072
0.0135245
0.0186837
0.0246047
0.0312006
0.0383787
0.0460463
0.0541147
0.0625013
0.0711311
0.0799374
0.0888615
0.0978524
0.106866
0.115866
0.12482
0.133702
0.142491
0.151167
0.159718
0.168131
0.176397
0.18451
0.192463
0.200253
0.207878
0.215336
0.222626
0.22975
0.236707
0.2435
0.250129
0.256597
0.262907
0.26906
0.27506
0.280909
0.28661
0.292166
0.29758
0.302854
0.307992
0.312995
0.317867
0.322608
0.32722
0.331706
0.336065
0.340299
0.344406
0.348387
0.35224
0.355962
0.359552
0.363005
0.366318
0.369485
0.3725
0.375357
0.378048
0.380567
0.382903
0.385047
0.386991
0.388723
0.390234
0.391513
0.39255
0.393333
0.393853
0.394099
0.394062
0.393733
0.393104
0.392166
0.390914
0.389342
0.387445
0.38522
0.382663
0.379776
0.376556
0.373007
0.369131
0.364932
0.360416
0.355589
0.350462
0.345029
0.339355
0.33326
0.327444
0.319338
0.319338
