# vtk DataFile Version 2.0
FlowField
ASCII
DATASET STRUCTURED_GRID
DIMENSIONS 102 1 12 
POINTS 1224 double
0 0 0
0.3 0 0
0.6 0 0
0.9 0 0
1.2 0 0
1.5 0 0
1.8 0 0
2.1 0 0
2.4 0 0
2.7 0 0
3 0 0
3.3 0 0
3.6 0 0
3.9 0 0
4.2 0 0
4.5 0 0
4.8 0 0
5.1 0 0
5.4 0 0
5.7 0 0
6 0 0
6.3 0 0
6.6 0 0
6.9 0 0
7.2 0 0
7.5 0 0
7.8 0 0
8.1 0 0
8.4 0 0
8.7 0 0
9 0 0
9.3 0 0
9.6 0 0
9.9 0 0
10.2 0 0
10.5 0 0
10.8 0 0
11.1 0 0
11.4 0 0
11.7 0 0
12 0 0
12.3 0 0
12.6 0 0
12.9 0 0
13.2 0 0
13.5 0 0
13.8 0 0
14.1 0 0
14.4 0 0
14.7 0 0
15 0 0
15.3 0 0
15.6 0 0
15.9 0 0
16.2 0 0
16.5 0 0
16.8 0 0
17.1 0 0
17.4 0 0
17.7 0 0
18 0 0
18.3 0 0
18.6 0 0
18.9 0 0
19.2 0 0
19.5 0 0
19.8 0 0
20.1 0 0
20.4 0 0
20.7 0 0
21 0 0
21.3 0 0
21.6 0 0
21.9 0 0
22.2 0 0
22.5 0 0
22.8 0 0
23.1 0 0
23.4 0 0
23.7 0 0
24 0 0
24.3 0 0
24.6 0 0
24.9 0 0
25.2 0 0
25.5 0 0
25.8 0 0
26.1 0 0
26.4 0 0
26.7 0 0
27 0 0
27.3 0 0
27.6 0 0
27.9 0 0
28.2 0 0
28.5 0 0
28.8 0 0
29.1 0 0
29.4 0 0
29.7 0 0
30 0 0
30.3 0 0
0 0.1 0
0.3 0.1 0
0.6 0.1 0
0.9 0.1 0
1.2 0.1 0
1.5 0.1 0
1.8 0.1 0
2.1 0.1 0
2.4 0.1 0
2.7 0.1 0
3 0.1 0
3.3 0.1 0
3.6 0.1 0
3.9 0.1 0
4.2 0.1 0
4.5 0.1 0
4.8 0.1 0
5.1 0.1 0
5.4 0.1 0
5.7 0.1 0
6 0.1 0
6.3 0.1 0
6.6 0.1 0
6.9 0.1 0
7.2 0.1 0
7.5 0.1 0
7.8 0.1 0
8.1 0.1 0
8.4 0.1 0
8.7 0.1 0
9 0.1 0
9.3 0.1 0
9.6 0.1 0
9.9 0.1 0
10.2 0.1 0
10.5 0.1 0
10.8 0.1 0
11.1 0.1 0
11.4 0.1 0
11.7 0.1 0
12 0.1 0
12.3 0.1 0
12.6 0.1 0
12.9 0.1 0
13.2 0.1 0
13.5 0.1 0
13.8 0.1 0
14.1 0.1 0
14.4 0.1 0
14.7 0.1 0
15 0.1 0
15.3 0.1 0
15.6 0.1 0
15.9 0.1 0
16.2 0.1 0
16.5 0.1 0
16.8 0.1 0
17.1 0.1 0
17.4 0.1 0
17.7 0.1 0
18 0.1 0
18.3 0.1 0
18.6 0.1 0
18.9 0.1 0
19.2 0.1 0
19.5 0.1 0
19.8 0.1 0
20.1 0.1 0
20.4 0.1 0
20.7 0.1 0
21 0.1 0
21.3 0.1 0
21.6 0.1 0
21.9 0.1 0
22.2 0.1 0
22.5 0.1 0
22.8 0.1 0
23.1 0.1 0
23.4 0.1 0
23.7 0.1 0
24 0.1 0
24.3 0.1 0
24.6 0.1 0
24.9 0.1 0
25.2 0.1 0
25.5 0.1 0
25.8 0.1 0
26.1 0.1 0
26.4 0.1 0
26.7 0.1 0
27 0.1 0
27.3 0.1 0
27.6 0.1 0
27.9 0.1 0
28.2 0.1 0
28.5 0.1 0
28.8 0.1 0
29.1 0.1 0
29.4 0.1 0
29.7 0.1 0
30 0.1 0
30.3 0.1 0
0 0.2 0
0.3 0.2 0
0.6 0.2 0
0.9 0.2 0
1.2 0.2 0
1.5 0.2 0
1.8 0.2 0
2.1 0.2 0
2.4 0.2 0
2.7 0.2 0
3 0.2 0
3.3 0.2 0
3.6 0.2 0
3.9 0.2 0
4.2 0.2 0
4.5 0.2 0
4.8 0.2 0
5.1 0.2 0
5.4 0.2 0
5.7 0.2 0
6 0.2 0
6.3 0.2 0
6.6 0.2 0
6.9 0.2 0
7.2 0.2 0
7.5 0.2 0
7.8 0.2 0
8.1 0.2 0
8.4 0.2 0
8.7 0.2 0
9 0.2 0
9.3 0.2 0
9.6 0.2 0
9.9 0.2 0
10.2 0.2 0
10.5 0.2 0
10.8 0.2 0
11.1 0.2 0
11.4 0.2 0
11.7 0.2 0
12 0.2 0
12.3 0.2 0
12.6 0.2 0
12.9 0.2 0
13.2 0.2 0
13.5 0.2 0
13.8 0.2 0
14.1 0.2 0
14.4 0.2 0
14.7 0.2 0
15 0.2 0
15.3 0.2 0
15.6 0.2 0
15.9 0.2 0
16.2 0.2 0
16.5 0.2 0
16.8 0.2 0
17.1 0.2 0
17.4 0.2 0
17.7 0.2 0
18 0.2 0
18.3 0.2 0
18.6 0.2 0
18.9 0.2 0
19.2 0.2 0
19.5 0.2 0
19.8 0.2 0
20.1 0.2 0
20.4 0.2 0
20.7 0.2 0
21 0.2 0
21.3 0.2 0
21.6 0.2 0
21.9 0.2 0
22.2 0.2 0
22.5 0.2 0
22.8 0.2 0
23.1 0.2 0
23.4 0.2 0
23.7 0.2 0
24 0.2 0
24.3 0.2 0
24.6 0.2 0
24.9 0.2 0
25.2 0.2 0
25.5 0.2 0
25.8 0.2 0
26.1 0.2 0
26.4 0.2 0
26.7 0.2 0
27 0.2 0
27.3 0.2 0
27.6 0.2 0
27.9 0.2 0
28.2 0.2 0
28.5 0.2 0
28.8 0.2 0
29.1 0.2 0
29.4 0.2 0
29.7 0.2 0
30 0.2 0
30.3 0.2 0
0 0.3 0
0.3 0.3 0
0.6 0.3 0
0.9 0.3 0
1.2 0.3 0
1.5 0.3 0
1.8 0.3 0
2.1 0.3 0
2.4 0.3 0
2.7 0.3 0
3 0.3 0
3.3 0.3 0
3.6 0.3 0
3.9 0.3 0
4.2 0.3 0
4.5 0.3 0
4.8 0.3 0
5.1 0.3 0
5.4 0.3 0
5.7 0.3 0
6 0.3 0
6.3 0.3 0
6.6 0.3 0
6.9 0.3 0
7.2 0.3 0
7.5 0.3 0
7.8 0.3 0
8.1 0.3 0
8.4 0.3 0
8.7 0.3 0
9 0.3 0
9.3 0.3 0
9.6 0.3 0
9.9 0.3 0
10.2 0.3 0
10.5 0.3 0
10.8 0.3 0
11.1 0.3 0
11.4 0.3 0
11.7 0.3 0
12 0.3 0
12.3 0.3 0
12.6 0.3 0
12.9 0.3 0
13.2 0.3 0
13.5 0.3 0
13.8 0.3 0
14.1 0.3 0
14.4 0.3 0
14.7 0.3 0
15 0.3 0
15.3 0.3 0
15.6 0.3 0
15.9 0.3 0
16.2 0.3 0
16.5 0.3 0
16.8 0.3 0
17.1 0.3 0
17.4 0.3 0
17.7 0.3 0
18 0.3 0
18.3 0.3 0
18.6 0.3 0
18.9 0.3 0
19.2 0.3 0
19.5 0.3 0
19.8 0.3 0
20.1 0.3 0
20.4 0.3 0
20.7 0.3 0
21 0.3 0
21.3 0.3 0
21.6 0.3 0
21.9 0.3 0
22.2 0.3 0
22.5 0.3 0
22.8 0.3 0
23.1 0.3 0
23.4 0.3 0
23.7 0.3 0
24 0.3 0
24.3 0.3 0
24.6 0.3 0
24.9 0.3 0
25.2 0.3 0
25.5 0.3 0
25.8 0.3 0
26.1 0.3 0
26.4 0.3 0
26.7 0.3 0
27 0.3 0
27.3 0.3 0
27.6 0.3 0
27.9 0.3 0
28.2 0.3 0
28.5 0.3 0
28.8 0.3 0
29.1 0.3 0
29.4 0.3 0
29.7 0.3 0
30 0.3 0
30.3 0.3 0
0 0.4 0
0.3 0.4 0
0.6 0.4 0
0.9 0.4 0
1.2 0.4 0
1.5 0.4 0
1.8 0.4 0
2.1 0.4 0
2.4 0.4 0
2.7 0.4 0
3 0.4 0
3.3 0.4 0
3.6 0.4 0
3.9 0.4 0
4.2 0.4 0
4.5 0.4 0
4.8 0.4 0
5.1 0.4 0
5.4 0.4 0
5.7 0.4 0
6 0.4 0
6.3 0.4 0
6.6 0.4 0
6.9 0.4 0
7.2 0.4 0
7.5 0.4 0
7.8 0.4 0
8.1 0.4 0
8.4 0.4 0
8.7 0.4 0
9 0.4 0
9.3 0.4 0
9.6 0.4 0
9.9 0.4 0
10.2 0.4 0
10.5 0.4 0
10.8 0.4 0
11.1 0.4 0
11.4 0.4 0
11.7 0.4 0
12 0.4 0
12.3 0.4 0
12.6 0.4 0
12.9 0.4 0
13.2 0.4 0
13.5 0.4 0
13.8 0.4 0
14.1 0.4 0
14.4 0.4 0
14.7 0.4 0
15 0.4 0
15.3 0.4 0
15.6 0.4 0
15.9 0.4 0
16.2 0.4 0
16.5 0.4 0
16.8 0.4 0
17.1 0.4 0
17.4 0.4 0
17.7 0.4 0
18 0.4 0
18.3 0.4 0
18.6 0.4 0
18.9 0.4 0
19.2 0.4 0
19.5 0.4 0
19.8 0.4 0
20.1 0.4 0
20.4 0.4 0
20.7 0.4 0
21 0.4 0
21.3 0.4 0
21.6 0.4 0
21.9 0.4 0
22.2 0.4 0
22.5 0.4 0
22.8 0.4 0
23.1 0.4 0
23.4 0.4 0
23.7 0.4 0
24 0.4 0
24.3 0.4 0
24.6 0.4 0
24.9 0.4 0
25.2 0.4 0
25.5 0.4 0
25.8 0.4 0
26.1 0.4 0
26.4 0.4 0
26.7 0.4 0
27 0.4 0
27.3 0.4 0
27.6 0.4 0
27.9 0.4 0
28.2 0.4 0
28.5 0.4 0
28.8 0.4 0
29.1 0.4 0
29.4 0.4 0
29.7 0.4 0
30 0.4 0
30.3 0.4 0
0 0.5 0
0.3 0.5 0
0.6 0.5 0
0.9 0.5 0
1.2 0.5 0
1.5 0.5 0
1.8 0.5 0
2.1 0.5 0
2.4 0.5 0
2.7 0.5 0
3 0.5 0
3.3 0.5 0
3.6 0.5 0
3.9 0.5 0
4.2 0.5 0
4.5 0.5 0
4.8 0.5 0
5.1 0.5 0
5.4 0.5 0
5.7 0.5 0
6 0.5 0
6.3 0.5 0
6.6 0.5 0
6.9 0.5 0
7.2 0.5 0
7.5 0.5 0
7.8 0.5 0
8.1 0.5 0
8.4 0.5 0
8.7 0.5 0
9 0.5 0
9.3 0.5 0
9.6 0.5 0
9.9 0.5 0
10.2 0.5 0
10.5 0.5 0
10.8 0.5 0
11.1 0.5 0
11.4 0.5 0
11.7 0.5 0
12 0.5 0
12.3 0.5 0
12.6 0.5 0
12.9 0.5 0
13.2 0.5 0
13.5 0.5 0
13.8 0.5 0
14.1 0.5 0
14.4 0.5 0
14.7 0.5 0
15 0.5 0
15.3 0.5 0
15.6 0.5 0
15.9 0.5 0
16.2 0.5 0
16.5 0.5 0
16.8 0.5 0
17.1 0.5 0
17.4 0.5 0
17.7 0.5 0
18 0.5 0
18.3 0.5 0
18.6 0.5 0
18.9 0.5 0
19.2 0.5 0
19.5 0.5 0
19.8 0.5 0
20.1 0.5 0
20.4 0.5 0
20.7 0.5 0
21 0.5 0
21.3 0.5 0
21.6 0.5 0
21.9 0.5 0
22.2 0.5 0
22.5 0.5 0
22.8 0.5 0
23.1 0.5 0
23.4 0.5 0
23.7 0.5 0
24 0.5 0
24.3 0.5 0
24.6 0.5 0
24.9 0.5 0
25.2 0.5 0
25.5 0.5 0
25.8 0.5 0
26.1 0.5 0
26.4 0.5 0
26.7 0.5 0
27 0.5 0
27.3 0.5 0
27.6 0.5 0
27.9 0.5 0
28.2 0.5 0
28.5 0.5 0
28.8 0.5 0
29.1 0.5 0
29.4 0.5 0
29.7 0.5 0
30 0.5 0
30.3 0.5 0
0 0.6 0
0.3 0.6 0
0.6 0.6 0
0.9 0.6 0
1.2 0.6 0
1.5 0.6 0
1.8 0.6 0
2.1 0.6 0
2.4 0.6 0
2.7 0.6 0
3 0.6 0
3.3 0.6 0
3.6 0.6 0
3.9 0.6 0
4.2 0.6 0
4.5 0.6 0
4.8 0.6 0
5.1 0.6 0
5.4 0.6 0
5.7 0.6 0
6 0.6 0
6.3 0.6 0
6.6 0.6 0
6.9 0.6 0
7.2 0.6 0
7.5 0.6 0
7.8 0.6 0
8.1 0.6 0
8.4 0.6 0
8.7 0.6 0
9 0.6 0
9.3 0.6 0
9.6 0.6 0
9.9 0.6 0
10.2 0.6 0
10.5 0.6 0
10.8 0.6 0
11.1 0.6 0
11.4 0.6 0
11.7 0.6 0
12 0.6 0
12.3 0.6 0
12.6 0.6 0
12.9 0.6 0
13.2 0.6 0
13.5 0.6 0
13.8 0.6 0
14.1 0.6 0
14.4 0.6 0
14.7 0.6 0
15 0.6 0
15.3 0.6 0
15.6 0.6 0
15.9 0.6 0
16.2 0.6 0
16.5 0.6 0
16.8 0.6 0
17.1 0.6 0
17.4 0.6 0
17.7 0.6 0
18 0.6 0
18.3 0.6 0
18.6 0.6 0
18.9 0.6 0
19.2 0.6 0
19.5 0.6 0
19.8 0.6 0
20.1 0.6 0
20.4 0.6 0
20.7 0.6 0
21 0.6 0
21.3 0.6 0
21.6 0.6 0
21.9 0.6 0
22.2 0.6 0
22.5 0.6 0
22.8 0.6 0
23.1 0.6 0
23.4 0.6 0
23.7 0.6 0
24 0.6 0
24.3 0.6 0
24.6 0.6 0
24.9 0.6 0
25.2 0.6 0
25.5 0.6 0
25.8 0.6 0
26.1 0.6 0
26.4 0.6 0
26.7 0.6 0
27 0.6 0
27.3 0.6 0
27.6 0.6 0
27.9 0.6 0
28.2 0.6 0
28.5 0.6 0
28.8 0.6 0
29.1 0.6 0
29.4 0.6 0
29.7 0.6 0
30 0.6 0
30.3 0.6 0
0 0.7 0
0.3 0.7 0
0.6 0.7 0
0.9 0.7 0
1.2 0.7 0
1.5 0.7 0
1.8 0.7 0
2.1 0.7 0
2.4 0.7 0
2.7 0.7 0
3 0.7 0
3.3 0.7 0
3.6 0.7 0
3.9 0.7 0
4.2 0.7 0
4.5 0.7 0
4.8 0.7 0
5.1 0.7 0
5.4 0.7 0
5.7 0.7 0
6 0.7 0
6.3 0.7 0
6.6 0.7 0
6.9 0.7 0
7.2 0.7 0
7.5 0.7 0
7.8 0.7 0
8.1 0.7 0
8.4 0.7 0
8.7 0.7 0
9 0.7 0
9.3 0.7 0
9.6 0.7 0
9.9 0.7 0
10.2 0.7 0
10.5 0.7 0
10.8 0.7 0
11.1 0.7 0
11.4 0.7 0
11.7 0.7 0
12 0.7 0
12.3 0.7 0
12.6 0.7 0
12.9 0.7 0
13.2 0.7 0
13.5 0.7 0
13.8 0.7 0
14.1 0.7 0
14.4 0.7 0
14.7 0.7 0
15 0.7 0
15.3 0.7 0
15.6 0.7 0
15.9 0.7 0
16.2 0.7 0
16.5 0.7 0
16.8 0.7 0
17.1 0.7 0
17.4 0.7 0
17.7 0.7 0
18 0.7 0
18.3 0.7 0
18.6 0.7 0
18.9 0.7 0
19.2 0.7 0
19.5 0.7 0
19.8 0.7 0
20.1 0.7 0
20.4 0.7 0
20.7 0.7 0
21 0.7 0
21.3 0.7 0
21.6 0.7 0
21.9 0.7 0
22.2 0.7 0
22.5 0.7 0
22.8 0.7 0
23.1 0.7 0
23.4 0.7 0
23.7 0.7 0
24 0.7 0
24.3 0.7 0
24.6 0.7 0
24.9 0.7 0
25.2 0.7 0
25.5 0.7 0
25.8 0.7 0
26.1 0.7 0
26.4 0.7 0
26.7 0.7 0
27 0.7 0
27.3 0.7 0
27.6 0.7 0
27.9 0.7 0
28.2 0.7 0
28.5 0.7 0
28.8 0.7 0
29.1 0.7 0
29.4 0.7 0
29.7 0.7 0
30 0.7 0
30.3 0.7 0
0 0.8 0
0.3 0.8 0
0.6 0.8 0
0.9 0.8 0
1.2 0.8 0
1.5 0.8 0
1.8 0.8 0
2.1 0.8 0
2.4 0.8 0
2.7 0.8 0
3 0.8 0
3.3 0.8 0
3.6 0.8 0
3.9 0.8 0
4.2 0.8 0
4.5 0.8 0
4.8 0.8 0
5.1 0.8 0
5.4 0.8 0
5.7 0.8 0
6 0.8 0
6.3 0.8 0
6.6 0.8 0
6.9 0.8 0
7.2 0.8 0
7.5 0.8 0
7.8 0.8 0
8.1 0.8 0
8.4 0.8 0
8.7 0.8 0
9 0.8 0
9.3 0.8 0
9.6 0.8 0
9.9 0.8 0
10.2 0.8 0
10.5 0.8 0
10.8 0.8 0
11.1 0.8 0
11.4 0.8 0
11.7 0.8 0
12 0.8 0
12.3 0.8 0
12.6 0.8 0
12.9 0.8 0
13.2 0.8 0
13.5 0.8 0
13.8 0.8 0
14.1 0.8 0
14.4 0.8 0
14.7 0.8 0
15 0.8 0
15.3 0.8 0
15.6 0.8 0
15.9 0.8 0
16.2 0.8 0
16.5 0.8 0
16.8 0.8 0
17.1 0.8 0
17.4 0.8 0
17.7 0.8 0
18 0.8 0
18.3 0.8 0
18.6 0.8 0
18.9 0.8 0
19.2 0.8 0
19.5 0.8 0
19.8 0.8 0
20.1 0.8 0
20.4 0.8 0
20.7 0.8 0
21 0.8 0
21.3 0.8 0
21.6 0.8 0
21.9 0.8 0
22.2 0.8 0
22.5 0.8 0
22.8 0.8 0
23.1 0.8 0
23.4 0.8 0
23.7 0.8 0
24 0.8 0
24.3 0.8 0
24.6 0.8 0
24.9 0.8 0
25.2 0.8 0
25.5 0.8 0
25.8 0.8 0
26.1 0.8 0
26.4 0.8 0
26.7 0.8 0
27 0.8 0
27.3 0.8 0
27.6 0.8 0
27.9 0.8 0
28.2 0.8 0
28.5 0.8 0
28.8 0.8 0
29.1 0.8 0
29.4 0.8 0
29.7 0.8 0
30 0.8 0
30.3 0.8 0
0 0.9 0
0.3 0.9 0
0.6 0.9 0
0.9 0.9 0
1.2 0.9 0
1.5 0.9 0
1.8 0.9 0
2.1 0.9 0
2.4 0.9 0
2.7 0.9 0
3 0.9 0
3.3 0.9 0
3.6 0.9 0
3.9 0.9 0
4.2 0.9 0
4.5 0.9 0
4.8 0.9 0
5.1 0.9 0
5.4 0.9 0
5.7 0.9 0
6 0.9 0
6.3 0.9 0
6.6 0.9 0
6.9 0.9 0
7.2 0.9 0
7.5 0.9 0
7.8 0.9 0
8.1 0.9 0
8.4 0.9 0
8.7 0.9 0
9 0.9 0
9.3 0.9 0
9.6 0.9 0
9.9 0.9 0
10.2 0.9 0
10.5 0.9 0
10.8 0.9 0
11.1 0.9 0
11.4 0.9 0
11.7 0.9 0
12 0.9 0
12.3 0.9 0
12.6 0.9 0
12.9 0.9 0
13.2 0.9 0
13.5 0.9 0
13.8 0.9 0
14.1 0.9 0
14.4 0.9 0
14.7 0.9 0
15 0.9 0
15.3 0.9 0
15.6 0.9 0
15.9 0.9 0
16.2 0.9 0
16.5 0.9 0
16.8 0.9 0
17.1 0.9 0
17.4 0.9 0
17.7 0.9 0
18 0.9 0
18.3 0.9 0
18.6 0.9 0
18.9 0.9 0
19.2 0.9 0
19.5 0.9 0
19.8 0.9 0
20.1 0.9 0
20.4 0.9 0
20.7 0.9 0
21 0.9 0
21.3 0.9 0
21.6 0.9 0
21.9 0.9 0
22.2 0.9 0
22.5 0.9 0
22.8 0.9 0
23.1 0.9 0
23.4 0.9 0
23.7 0.9 0
24 0.9 0
24.3 0.9 0
24.6 0.9 0
24.9 0.9 0
25.2 0.9 0
25.5 0.9 0
25.8 0.9 0
26.1 0.9 0
26.4 0.9 0
26.7 0.9 0
27 0.9 0
27.3 0.9 0
27.6 0.9 0
27.9 0.9 0
28.2 0.9 0
28.5 0.9 0
28.8 0.9 0
29.1 0.9 0
29.4 0.9 0
29.7 0.9 0
30 0.9 0
30.3 0.9 0
0 1 0
0.3 1 0
0.6 1 0
0.9 1 0
1.2 1 0
1.5 1 0
1.8 1 0
2.1 1 0
2.4 1 0
2.7 1 0
3 1 0
3.3 1 0
3.6 1 0
3.9 1 0
4.2 1 0
4.5 1 0
4.8 1 0
5.1 1 0
5.4 1 0
5.7 1 0
6 1 0
6.3 1 0
6.6 1 0
6.9 1 0
7.2 1 0
7.5 1 0
7.8 1 0
8.1 1 0
8.4 1 0
8.7 1 0
9 1 0
9.3 1 0
9.6 1 0
9.9 1 0
10.2 1 0
10.5 1 0
10.8 1 0
11.1 1 0
11.4 1 0
11.7 1 0
12 1 0
12.3 1 0
12.6 1 0
12.9 1 0
13.2 1 0
13.5 1 0
13.8 1 0
14.1 1 0
14.4 1 0
14.7 1 0
15 1 0
15.3 1 0
15.6 1 0
15.9 1 0
16.2 1 0
16.5 1 0
16.8 1 0
17.1 1 0
17.4 1 0
17.7 1 0
18 1 0
18.3 1 0
18.6 1 0
18.9 1 0
19.2 1 0
19.5 1 0
19.8 1 0
20.1 1 0
20.4 1 0
20.7 1 0
21 1 0
21.3 1 0
21.6 1 0
21.9 1 0
22.2 1 0
22.5 1 0
22.8 1 0
23.1 1 0
23.4 1 0
23.7 1 0
24 1 0
24.3 1 0
24.6 1 0
24.9 1 0
25.2 1 0
25.5 1 0
25.8 1 0
26.1 1 0
26.4 1 0
26.7 1 0
27 1 0
27.3 1 0
27.6 1 0
27.9 1 0
28.2 1 0
28.5 1 0
28.8 1 0
29.1 1 0
29.4 1 0
29.7 1 0
30 1 0
30.3 1 0
0 1.1 0
0.3 1.1 0
0.6 1.1 0
0.9 1.1 0
1.2 1.1 0
1.5 1.1 0
1.8 1.1 0
2.1 1.1 0
2.4 1.1 0
2.7 1.1 0
3 1.1 0
3.3 1.1 0
3.6 1.1 0
3.9 1.1 0
4.2 1.1 0
4.5 1.1 0
4.8 1.1 0
5.1 1.1 0
5.4 1.1 0
5.7 1.1 0
6 1.1 0
6.3 1.1 0
6.6 1.1 0
6.9 1.1 0
7.2 1.1 0
7.5 1.1 0
7.8 1.1 0
8.1 1.1 0
8.4 1.1 0
8.7 1.1 0
9 1.1 0
9.3 1.1 0
9.6 1.1 0
9.9 1.1 0
10.2 1.1 0
10.5 1.1 0
10.8 1.1 0
11.1 1.1 0
11.4 1.1 0
11.7 1.1 0
12 1.1 0
12.3 1.1 0
12.6 1.1 0
12.9 1.1 0
13.2 1.1 0
13.5 1.1 0
13.8 1.1 0
14.1 1.1 0
14.4 1.1 0
14.7 1.1 0
15 1.1 0
15.3 1.1 0
15.6 1.1 0
15.9 1.1 0
16.2 1.1 0
16.5 1.1 0
16.8 1.1 0
17.1 1.1 0
17.4 1.1 0
17.7 1.1 0
18 1.1 0
18.3 1.1 0
18.6 1.1 0
18.9 1.1 0
19.2 1.1 0
19.5 1.1 0
19.8 1.1 0
20.1 1.1 0
20.4 1.1 0
20.7 1.1 0
21 1.1 0
21.3 1.1 0
21.6 1.1 0
21.9 1.1 0
22.2 1.1 0
22.5 1.1 0
22.8 1.1 0
23.1 1.1 0
23.4 1.1 0
23.7 1.1 0
24 1.1 0
24.3 1.1 0
24.6 1.1 0
24.9 1.1 0
25.2 1.1 0
25.5 1.1 0
25.8 1.1 0
26.1 1.1 0
26.4 1.1 0
26.7 1.1 0
27 1.1 0
27.3 1.1 0
27.6 1.1 0
27.9 1.1 0
28.2 1.1 0
28.5 1.1 0
28.8 1.1 0
29.1 1.1 0
29.4 1.1 0
29.7 1.1 0
30 1.1 0
30.3 1.1 0

POINT_DATA 1224

SCALARS v double
LOOKUP_TABLE default
0
0
0
0
0
0
0
0
0
0
0
0
0
0
0
0
0
0
0
0
0
0
0
0
0
0
0
0
0
0
0
0
0
0
0
0
0
0
0
0
0
0
0
0
0
0
0
0
0
0
0
0
0
0
0
0
0
0
0
0
0
0
0
0
0
0
0
0
0
0
0
0
0
0
0
0
0
0
0
0
0
0
0
0
0
0
0
0
0
0
0
0
0
0
0
0
0
0
0
0
0
0
-0.0630253
0.0630253
0.0557271
0.0385112
0.0243784
0.0149415
0.00927633
0.00604182
0.00419936
0.00310901
0.00242024
0.00195189
0.00161172
0.00135185
0.00114614
0.000979236
0.000841486
0.00072639
0.000629307
0.000546792
0.000476245
0.000415623
0.000363288
0.000317968
0.000278634
0.00024438
0.000214475
0.000188365
0.000165539
0.000145517
0.000127949
0.000112559
9.90523e-05
8.71701e-05
7.67195e-05
6.75336e-05
5.94632e-05
5.23688e-05
4.61162e-05
4.06052e-05
3.57603e-05
3.15007e-05
2.77503e-05
2.44464e-05
2.15349e-05
1.89705e-05
1.67123e-05
1.47223e-05
1.29671e-05
1.14143e-05
1.0036e-05
8.81203e-06
7.724e-06
6.75245e-06
5.88192e-06
5.10154e-06
4.40183e-06
3.77463e-06
3.21408e-06
2.71584e-06
2.27559e-06
1.88912e-06
1.5529e-06
1.26368e-06
1.01767e-06
8.10731e-07
6.39022e-07
4.98585e-07
3.85136e-07
2.94683e-07
2.23611e-07
1.68439e-07
1.26235e-07
9.4588e-08
7.10258e-08
5.35475e-08
4.08847e-08
3.18884e-08
2.55155e-08
2.08991e-08
1.75633e-08
1.5437e-08
1.40222e-08
1.27689e-08
1.17814e-08
1.11191e-08
1.0679e-08
1.03641e-08
9.96693e-09
9.46106e-09
9.0089e-09
8.72087e-09
8.52998e-09
8.22572e-09
7.99032e-09
7.10732e-09
8.04183e-09
3.27452e-09
7.04897e-09
-7.15464e-09
-6.8884e-08
-6.8884e-08
-0.051614
0.051614
0.0605197
0.048598
0.0351318
0.0247329
0.0176652
0.0130517
0.0100098
0.00792705
0.0064332
0.00531476
0.00444814
0.0037591
0.00320063
0.00274129
0.00235912
0.00203821
0.00176666
0.00153539
0.00133737
0.00116704
0.00101996
0.000892564
0.000781933
0.000685609
0.000601582
0.000528207
0.00046403
0.000407801
0.000358518
0.000315313
0.000277384
0.000244054
0.000214768
0.000189032
0.000166412
0.000146513
0.000128995
0.00011358
0.000100023
8.80913e-05
7.7587e-05
6.83381e-05
6.01932e-05
5.30208e-05
4.67022e-05
4.11313e-05
3.62133e-05
3.18621e-05
2.80044e-05
2.45789e-05
2.15292e-05
1.88047e-05
1.63656e-05
1.418e-05
1.2221e-05
1.04668e-05
8.90084e-06
7.5097e-06
6.28127e-06
5.20446e-06
4.26931e-06
3.46581e-06
2.78306e-06
2.20981e-06
1.73489e-06
1.34665e-06
1.03336e-06
7.84035e-07
5.88431e-07
4.37051e-07
3.21653e-07
2.34965e-07
1.70487e-07
1.23151e-07
8.90424e-08
6.47766e-08
4.76534e-08
3.56347e-08
2.73965e-08
2.19684e-08
1.81851e-08
1.53754e-08
1.34402e-08
1.21641e-08
1.1343e-08
1.07102e-08
1.00388e-08
9.42373e-09
8.9598e-09
8.62409e-09
8.35754e-09
7.91285e-09
7.74247e-09
6.51312e-09
8.43689e-09
-1.55685e-09
7.62068e-09
-1.04316e-07
-2.07245e-07
-2.07245e-07
-0.031689
0.031689
0.0439855
0.0385944
0.0299835
0.0226205
0.0172756
0.0135694
0.0109667
0.00906486
0.00761235
0.00646149
0.00552523
0.00474978
0.0040996
0.00354969
0.00308155
0.00268098
0.00233675
0.00203988
0.0017831
0.00156039
0.0013668
0.00119822
0.00105118
0.000922709
0.00081035
0.000712006
0.000625825
0.000550227
0.000483904
0.000425694
0.00037455
0.000329593
0.000290081
0.000255347
0.0002248
0.000197918
0.000174259
0.000153444
0.00013513
0.000119007
0.000104813
9.23165e-05
8.13126e-05
7.16224e-05
6.30853e-05
5.55581e-05
4.89126e-05
4.30351e-05
3.78281e-05
3.32065e-05
2.90922e-05
2.54188e-05
2.21329e-05
1.919e-05
1.65529e-05
1.41918e-05
1.20839e-05
1.021e-05
8.55362e-06
7.09986e-06
5.83547e-06
4.74694e-06
3.8198e-06
3.03954e-06
2.39136e-06
1.85975e-06
1.42942e-06
1.0859e-06
8.15506e-07
6.05635e-07
4.45108e-07
3.23934e-07
2.33513e-07
1.6707e-07
1.19012e-07
8.46242e-08
6.0309e-08
4.33629e-08
3.18492e-08
2.41256e-08
1.87205e-08
1.49056e-08
1.23412e-08
1.06745e-08
9.60151e-09
8.72734e-09
7.94267e-09
7.35374e-09
6.91783e-09
6.57482e-09
6.25476e-09
5.82629e-09
5.68997e-09
4.50071e-09
6.71032e-09
-5.8126e-09
1.03487e-08
-1.73261e-07
-2.7722e-07
-2.7722e-07
-0.0146343
0.0146343
0.0221781
0.0203996
0.0164657
0.0128764
0.0101764
0.00824857
0.00685378
0.00580159
0.0049713
0.00429242
0.00372394
0.00324077
0.0028263
0.00246871
0.00215903
0.00189008
0.001656
0.00145192
0.00127377
0.00111805
0.000981799
0.000862503
0.000757963
0.000666272
0.000585829
0.000515234
0.000453224
0.000398733
0.000350866
0.000308795
0.000271786
0.000239231
0.000210605
0.000185427
0.000163267
0.000143758
0.000126586
0.000111478
9.81795e-05
8.64685e-05
7.61581e-05
6.70798e-05
5.90856e-05
5.20457e-05
4.58434e-05
4.03745e-05
3.55459e-05
3.12764e-05
2.74962e-05
2.41422e-05
2.11568e-05
1.84926e-05
1.61111e-05
1.39792e-05
1.20689e-05
1.03588e-05
8.83178e-06
7.47372e-06
6.27195e-06
5.2159e-06
4.29615e-06
3.50281e-06
2.82557e-06
2.25433e-06
1.77853e-06
1.38706e-06
1.06914e-06
8.14547e-07
6.1349e-07
4.56931e-07
3.36715e-07
2.45499e-07
1.77151e-07
1.26788e-07
9.01444e-08
6.37275e-08
4.49778e-08
3.19536e-08
2.3153e-08
1.71884e-08
1.29715e-08
1.00055e-08
8.00004e-09
6.71934e-09
5.85514e-09
5.0904e-09
4.48094e-09
4.06443e-09
3.7242e-09
3.42704e-09
3.14462e-09
2.83607e-09
2.68193e-09
1.95531e-09
3.38736e-09
-5.3296e-09
8.36467e-09
-1.31547e-07
-1.95888e-07
-1.95888e-07
4.28367e-09
-4.28367e-09
2.00452e-08
2.88678e-08
3.86063e-08
4.61161e-08
3.19179e-08
1.89824e-08
3.21251e-08
4.26662e-08
2.78236e-08
1.44714e-08
2.41938e-08
3.60393e-08
2.69122e-08
1.43891e-08
2.18103e-08
2.93469e-08
1.97587e-08
1.72431e-08
2.5896e-08
2.02714e-08
1.1696e-08
2.13222e-08
2.55281e-08
1.27174e-08
1.28716e-08
2.42989e-08
1.77416e-08
8.02517e-09
1.73427e-08
2.37524e-08
1.40297e-08
8.1789e-09
1.40775e-08
1.9546e-08
1.69386e-08
1.09314e-08
1.06244e-08
1.46808e-08
1.51926e-08
1.3532e-08
1.32622e-08
1.27921e-08
1.24122e-08
1.31014e-08
1.40437e-08
1.4431e-08
1.36554e-08
1.28795e-08
1.36086e-08
1.46105e-08
1.43981e-08
1.38633e-08
1.39322e-08
1.39992e-08
1.35252e-08
1.29102e-08
1.26649e-08
1.24709e-08
1.17885e-08
1.09239e-08
1.0326e-08
9.73009e-09
8.99915e-09
8.44046e-09
7.97354e-09
7.3585e-09
6.69496e-09
6.12577e-09
5.6804e-09
5.33704e-09
4.97751e-09
4.46742e-09
3.95315e-09
3.56272e-09
3.10923e-09
2.57595e-09
2.14746e-09
1.94299e-09
1.9613e-09
1.99529e-09
1.89008e-09
1.68749e-09
1.50374e-09
1.41848e-09
1.27257e-09
1.01006e-09
8.34337e-10
6.9288e-10
5.04942e-10
3.28445e-10
1.59402e-10
1.51588e-12
-1.89965e-10
-2.03976e-10
-1.60875e-10
-9.45136e-11
1.67742e-10
7.30224e-10
5.47071e-09
5.47071e-09
0.0146343
-0.0146343
-0.022178
-0.0203996
-0.0164656
-0.0128763
-0.0101763
-0.00824854
-0.00685373
-0.00580152
-0.00497125
-0.00429239
-0.0037239
-0.0032407
-0.00282625
-0.00246868
-0.00215899
-0.00189003
-0.00165596
-0.00145189
-0.00127372
-0.00111801
-0.000981776
-0.000862463
-0.000757914
-0.000666246
-0.000585805
-0.000515189
-0.000453188
-0.000398716
-0.000350834
-0.00030875
-0.000271756
-0.000239212
-0.000210578
-0.000185392
-0.000163234
-0.000143733
-0.000126564
-0.000111451
-9.81504e-05
-8.64414e-05
-7.61313e-05
-6.7054e-05
-5.90607e-05
-5.20199e-05
-4.58159e-05
-4.0346e-05
-3.55184e-05
-3.12504e-05
-2.74694e-05
-2.41136e-05
-2.11282e-05
-1.84649e-05
-1.60834e-05
-1.39513e-05
-1.20419e-05
-1.03328e-05
-8.80626e-06
-7.44856e-06
-6.24799e-06
-5.19345e-06
-4.27481e-06
-3.48257e-06
-2.80666e-06
-2.23649e-06
-1.7616e-06
-1.37125e-06
-1.05457e-06
-8.01041e-07
-6.0084e-07
-4.44986e-07
-3.25487e-07
-2.35206e-07
-1.67824e-07
-1.18248e-07
-8.2474e-08
-5.7048e-08
-3.91563e-08
-2.66478e-08
-1.78993e-08
-1.18551e-08
-7.83643e-09
-5.28841e-09
-3.65639e-09
-2.59143e-09
-2.02898e-09
-1.74073e-09
-1.51272e-09
-1.44434e-09
-1.48675e-09
-1.52714e-09
-1.59265e-09
-1.61865e-09
-1.86021e-09
-1.17247e-09
-2.50689e-09
6.26052e-09
-6.85673e-09
1.34057e-07
2.06567e-07
2.06567e-07
0.0316889
-0.0316889
-0.0439855
-0.0385944
-0.0299834
-0.0226205
-0.0172756
-0.0135694
-0.0109666
-0.0090648
-0.0076123
-0.00646145
-0.00552519
-0.00474974
-0.00409956
-0.00354965
-0.00308151
-0.00268094
-0.00233672
-0.00203985
-0.00178306
-0.00156036
-0.00136678
-0.00119819
-0.00105113
-0.000922682
-0.00081033
-0.000711967
-0.000625786
-0.000550207
-0.000483881
-0.000425658
-0.000374517
-0.000329569
-0.000290056
-0.00025532
-0.00022477
-0.000197889
-0.000174234
-0.00015342
-0.000135104
-0.00011898
-0.000104786
-9.229e-05
-8.12876e-05
-7.15975e-05
-6.30594e-05
-5.55308e-05
-4.88849e-05
-4.30083e-05
-3.7802e-05
-3.31794e-05
-2.90644e-05
-2.53912e-05
-2.21055e-05
-1.91626e-05
-1.6526e-05
-1.41656e-05
-1.2058e-05
-1.01845e-05
-8.52885e-06
-7.07612e-06
-5.81261e-06
-4.7249e-06
-3.79873e-06
-3.01939e-06
-2.372e-06
-1.84125e-06
-1.41186e-06
-1.06919e-06
-7.99519e-07
-5.90363e-07
-4.3054e-07
-3.10083e-07
-2.20443e-07
-1.54776e-07
-1.07473e-07
-7.38728e-08
-5.03818e-08
-3.41649e-08
-2.29269e-08
-1.51271e-08
-9.88011e-09
-6.50848e-09
-4.35067e-09
-3.01458e-09
-2.27738e-09
-1.79437e-09
-1.46756e-09
-1.3758e-09
-1.36939e-09
-1.35045e-09
-1.37287e-09
-1.35235e-09
-1.5966e-09
-6.27428e-10
-2.42559e-09
9.87094e-09
-5.81405e-09
1.78547e-07
2.88067e-07
2.88067e-07
0.0516139
-0.0516139
-0.0605197
-0.0485979
-0.0351317
-0.0247329
-0.0176652
-0.0130517
-0.0100097
-0.00792702
-0.00643316
-0.00531471
-0.0044481
-0.00375908
-0.00320059
-0.00274125
-0.00235909
-0.00203819
-0.00176663
-0.00153536
-0.00133733
-0.00116701
-0.00101994
-0.000892539
-0.000781896
-0.000685579
-0.000601565
-0.000528178
-0.00046399
-0.000407776
-0.000358502
-0.000315286
-0.000277349
-0.000244023
-0.000214745
-0.000189014
-0.000166386
-0.000146478
-0.000128965
-0.000113559
-0.000100001
-8.80654e-05
-7.75589e-05
-6.83107e-05
-6.01679e-05
-5.29967e-05
-4.66779e-05
-4.11057e-05
-3.61858e-05
-3.18346e-05
-2.79787e-05
-2.45537e-05
-2.15027e-05
-1.87776e-05
-1.63387e-05
-1.41532e-05
-1.21943e-05
-1.04404e-05
-8.87473e-06
-7.48377e-06
-6.25554e-06
-5.17912e-06
-4.24449e-06
-3.44147e-06
-2.75919e-06
-2.1866e-06
-1.7123e-06
-1.32456e-06
-1.01183e-06
-7.63068e-07
-5.67999e-07
-4.173e-07
-3.0258e-07
-2.16371e-07
-1.52439e-07
-1.05829e-07
-7.23365e-08
-4.85757e-08
-3.21304e-08
-2.09775e-08
-1.33002e-08
-7.92811e-09
-4.28653e-09
-1.9136e-09
-4.18808e-10
3.79936e-10
7.57955e-10
1.02921e-09
1.14793e-09
1.09831e-09
1.04741e-09
1.02524e-09
9.52448e-10
9.27698e-10
7.25646e-10
1.43698e-09
5.09309e-11
9.992e-09
8.14612e-10
1.13055e-07
2.18723e-07
2.18723e-07
0.0630252
-0.0630252
-0.0557271
-0.0385112
-0.0243783
-0.0149415
-0.00927629
-0.00604179
-0.00419935
-0.00310899
-0.00242021
-0.00195184
-0.00161169
-0.00135184
-0.00114611
-0.000979195
-0.000841454
-0.000726369
-0.000629283
-0.000546765
-0.000476216
-0.000415591
-0.000363263
-0.000317949
-0.000278603
-0.000244347
-0.000214457
-0.000188345
-0.000165501
-0.000145485
-0.000127936
-0.000112541
-9.90174e-05
-8.71344e-05
-7.66959e-05
-6.75193e-05
-5.94426e-05
-5.23345e-05
-4.60831e-05
-4.05838e-05
-3.57414e-05
-3.14765e-05
-2.77226e-05
-2.44183e-05
-2.15088e-05
-1.89465e-05
-1.6689e-05
-1.46982e-05
-1.29406e-05
-1.13866e-05
-1.00103e-05
-8.78796e-06
-7.69899e-06
-6.72621e-06
-5.85558e-06
-5.07521e-06
-4.37529e-06
-3.74809e-06
-3.18775e-06
-2.68948e-06
-2.24893e-06
-1.86229e-06
-1.52623e-06
-1.23714e-06
-9.91184e-07
-7.84597e-07
-6.13322e-07
-4.73119e-07
-3.59896e-07
-2.69748e-07
-1.99047e-07
-1.4447e-07
-1.02916e-07
-7.16296e-08
-4.84371e-08
-3.15957e-08
-1.94683e-08
-1.07633e-08
-4.73043e-09
-6.3602e-10
1.96666e-09
3.62972e-09
4.65462e-09
5.26856e-09
5.60175e-09
5.68288e-09
5.67771e-09
5.67318e-09
5.53787e-09
5.32907e-09
5.17131e-09
5.02896e-09
4.85866e-09
4.70771e-09
4.45936e-09
4.67723e-09
3.80754e-09
8.44665e-09
4.94144e-09
1.85751e-08
8.04813e-08
8.04813e-08
0
0
0
0
0
0
0
0
0
0
0
0
0
0
0
0
0
0
0
0
0
0
0
0
0
0
0
0
0
0
0
0
0
0
0
0
0
0
0
0
0
0
0
0
0
0
0
0
0
0
0
0
0
0
0
0
0
0
0
0
0
0
0
0
0
0
0
0
0
0
0
0
0
0
0
0
0
0
0
0
0
0
0
0
0
0
0
0
0
0
0
0
0
0
0
0
0
0
0
0
0
0
0
0
0
0
0
0
0
0
0
0
0
0
0
0
0
0
0
0
0
0
0
0
0
0
0
0
0
0
0
0
0
0
0
0
0
0
0
0
0
0
0
0
0
0
0
0
0
0
0
0
0
0
0
0
0
0
0
0
0
0
0
0
0
0
0
0
0
0
0
0
0
0
0
0
0
0
0
0
0
0
0
0
0
0
0
0
0
0
0
0
0
0
0
0
0
0
0
0
0
0
0
0
