# vtk DataFile Version 2.0
FlowField
ASCII
DATASET STRUCTURED_GRID
DIMENSIONS 102 13 1 
POINTS 1326 double
0 0 0
0.3 0 0
0.6 0 0
0.9 0 0
1.2 0 0
1.5 0 0
1.8 0 0
2.1 0 0
2.4 0 0
2.7 0 0
3 0 0
3.3 0 0
3.6 0 0
3.9 0 0
4.2 0 0
4.5 0 0
4.8 0 0
5.1 0 0
5.4 0 0
5.7 0 0
6 0 0
6.3 0 0
6.6 0 0
6.9 0 0
7.2 0 0
7.5 0 0
7.8 0 0
8.1 0 0
8.4 0 0
8.7 0 0
9 0 0
9.3 0 0
9.6 0 0
9.9 0 0
10.2 0 0
10.5 0 0
10.8 0 0
11.1 0 0
11.4 0 0
11.7 0 0
12 0 0
12.3 0 0
12.6 0 0
12.9 0 0
13.2 0 0
13.5 0 0
13.8 0 0
14.1 0 0
14.4 0 0
14.7 0 0
15 0 0
15.3 0 0
15.6 0 0
15.9 0 0
16.2 0 0
16.5 0 0
16.8 0 0
17.1 0 0
17.4 0 0
17.7 0 0
18 0 0
18.3 0 0
18.6 0 0
18.9 0 0
19.2 0 0
19.5 0 0
19.8 0 0
20.1 0 0
20.4 0 0
20.7 0 0
21 0 0
21.3 0 0
21.6 0 0
21.9 0 0
22.2 0 0
22.5 0 0
22.8 0 0
23.1 0 0
23.4 0 0
23.7 0 0
24 0 0
24.3 0 0
24.6 0 0
24.9 0 0
25.2 0 0
25.5 0 0
25.8 0 0
26.1 0 0
26.4 0 0
26.7 0 0
27 0 0
27.3 0 0
27.6 0 0
27.9 0 0
28.2 0 0
28.5 0 0
28.8 0 0
29.1 0 0
29.4 0 0
29.7 0 0
30 0 0
30.3 0 0
0 0.1 0
0.3 0.1 0
0.6 0.1 0
0.9 0.1 0
1.2 0.1 0
1.5 0.1 0
1.8 0.1 0
2.1 0.1 0
2.4 0.1 0
2.7 0.1 0
3 0.1 0
3.3 0.1 0
3.6 0.1 0
3.9 0.1 0
4.2 0.1 0
4.5 0.1 0
4.8 0.1 0
5.1 0.1 0
5.4 0.1 0
5.7 0.1 0
6 0.1 0
6.3 0.1 0
6.6 0.1 0
6.9 0.1 0
7.2 0.1 0
7.5 0.1 0
7.8 0.1 0
8.1 0.1 0
8.4 0.1 0
8.7 0.1 0
9 0.1 0
9.3 0.1 0
9.6 0.1 0
9.9 0.1 0
10.2 0.1 0
10.5 0.1 0
10.8 0.1 0
11.1 0.1 0
11.4 0.1 0
11.7 0.1 0
12 0.1 0
12.3 0.1 0
12.6 0.1 0
12.9 0.1 0
13.2 0.1 0
13.5 0.1 0
13.8 0.1 0
14.1 0.1 0
14.4 0.1 0
14.7 0.1 0
15 0.1 0
15.3 0.1 0
15.6 0.1 0
15.9 0.1 0
16.2 0.1 0
16.5 0.1 0
16.8 0.1 0
17.1 0.1 0
17.4 0.1 0
17.7 0.1 0
18 0.1 0
18.3 0.1 0
18.6 0.1 0
18.9 0.1 0
19.2 0.1 0
19.5 0.1 0
19.8 0.1 0
20.1 0.1 0
20.4 0.1 0
20.7 0.1 0
21 0.1 0
21.3 0.1 0
21.6 0.1 0
21.9 0.1 0
22.2 0.1 0
22.5 0.1 0
22.8 0.1 0
23.1 0.1 0
23.4 0.1 0
23.7 0.1 0
24 0.1 0
24.3 0.1 0
24.6 0.1 0
24.9 0.1 0
25.2 0.1 0
25.5 0.1 0
25.8 0.1 0
26.1 0.1 0
26.4 0.1 0
26.7 0.1 0
27 0.1 0
27.3 0.1 0
27.6 0.1 0
27.9 0.1 0
28.2 0.1 0
28.5 0.1 0
28.8 0.1 0
29.1 0.1 0
29.4 0.1 0
29.7 0.1 0
30 0.1 0
30.3 0.1 0
0 0.2 0
0.3 0.2 0
0.6 0.2 0
0.9 0.2 0
1.2 0.2 0
1.5 0.2 0
1.8 0.2 0
2.1 0.2 0
2.4 0.2 0
2.7 0.2 0
3 0.2 0
3.3 0.2 0
3.6 0.2 0
3.9 0.2 0
4.2 0.2 0
4.5 0.2 0
4.8 0.2 0
5.1 0.2 0
5.4 0.2 0
5.7 0.2 0
6 0.2 0
6.3 0.2 0
6.6 0.2 0
6.9 0.2 0
7.2 0.2 0
7.5 0.2 0
7.8 0.2 0
8.1 0.2 0
8.4 0.2 0
8.7 0.2 0
9 0.2 0
9.3 0.2 0
9.6 0.2 0
9.9 0.2 0
10.2 0.2 0
10.5 0.2 0
10.8 0.2 0
11.1 0.2 0
11.4 0.2 0
11.7 0.2 0
12 0.2 0
12.3 0.2 0
12.6 0.2 0
12.9 0.2 0
13.2 0.2 0
13.5 0.2 0
13.8 0.2 0
14.1 0.2 0
14.4 0.2 0
14.7 0.2 0
15 0.2 0
15.3 0.2 0
15.6 0.2 0
15.9 0.2 0
16.2 0.2 0
16.5 0.2 0
16.8 0.2 0
17.1 0.2 0
17.4 0.2 0
17.7 0.2 0
18 0.2 0
18.3 0.2 0
18.6 0.2 0
18.9 0.2 0
19.2 0.2 0
19.5 0.2 0
19.8 0.2 0
20.1 0.2 0
20.4 0.2 0
20.7 0.2 0
21 0.2 0
21.3 0.2 0
21.6 0.2 0
21.9 0.2 0
22.2 0.2 0
22.5 0.2 0
22.8 0.2 0
23.1 0.2 0
23.4 0.2 0
23.7 0.2 0
24 0.2 0
24.3 0.2 0
24.6 0.2 0
24.9 0.2 0
25.2 0.2 0
25.5 0.2 0
25.8 0.2 0
26.1 0.2 0
26.4 0.2 0
26.7 0.2 0
27 0.2 0
27.3 0.2 0
27.6 0.2 0
27.9 0.2 0
28.2 0.2 0
28.5 0.2 0
28.8 0.2 0
29.1 0.2 0
29.4 0.2 0
29.7 0.2 0
30 0.2 0
30.3 0.2 0
0 0.3 0
0.3 0.3 0
0.6 0.3 0
0.9 0.3 0
1.2 0.3 0
1.5 0.3 0
1.8 0.3 0
2.1 0.3 0
2.4 0.3 0
2.7 0.3 0
3 0.3 0
3.3 0.3 0
3.6 0.3 0
3.9 0.3 0
4.2 0.3 0
4.5 0.3 0
4.8 0.3 0
5.1 0.3 0
5.4 0.3 0
5.7 0.3 0
6 0.3 0
6.3 0.3 0
6.6 0.3 0
6.9 0.3 0
7.2 0.3 0
7.5 0.3 0
7.8 0.3 0
8.1 0.3 0
8.4 0.3 0
8.7 0.3 0
9 0.3 0
9.3 0.3 0
9.6 0.3 0
9.9 0.3 0
10.2 0.3 0
10.5 0.3 0
10.8 0.3 0
11.1 0.3 0
11.4 0.3 0
11.7 0.3 0
12 0.3 0
12.3 0.3 0
12.6 0.3 0
12.9 0.3 0
13.2 0.3 0
13.5 0.3 0
13.8 0.3 0
14.1 0.3 0
14.4 0.3 0
14.7 0.3 0
15 0.3 0
15.3 0.3 0
15.6 0.3 0
15.9 0.3 0
16.2 0.3 0
16.5 0.3 0
16.8 0.3 0
17.1 0.3 0
17.4 0.3 0
17.7 0.3 0
18 0.3 0
18.3 0.3 0
18.6 0.3 0
18.9 0.3 0
19.2 0.3 0
19.5 0.3 0
19.8 0.3 0
20.1 0.3 0
20.4 0.3 0
20.7 0.3 0
21 0.3 0
21.3 0.3 0
21.6 0.3 0
21.9 0.3 0
22.2 0.3 0
22.5 0.3 0
22.8 0.3 0
23.1 0.3 0
23.4 0.3 0
23.7 0.3 0
24 0.3 0
24.3 0.3 0
24.6 0.3 0
24.9 0.3 0
25.2 0.3 0
25.5 0.3 0
25.8 0.3 0
26.1 0.3 0
26.4 0.3 0
26.7 0.3 0
27 0.3 0
27.3 0.3 0
27.6 0.3 0
27.9 0.3 0
28.2 0.3 0
28.5 0.3 0
28.8 0.3 0
29.1 0.3 0
29.4 0.3 0
29.7 0.3 0
30 0.3 0
30.3 0.3 0
0 0.4 0
0.3 0.4 0
0.6 0.4 0
0.9 0.4 0
1.2 0.4 0
1.5 0.4 0
1.8 0.4 0
2.1 0.4 0
2.4 0.4 0
2.7 0.4 0
3 0.4 0
3.3 0.4 0
3.6 0.4 0
3.9 0.4 0
4.2 0.4 0
4.5 0.4 0
4.8 0.4 0
5.1 0.4 0
5.4 0.4 0
5.7 0.4 0
6 0.4 0
6.3 0.4 0
6.6 0.4 0
6.9 0.4 0
7.2 0.4 0
7.5 0.4 0
7.8 0.4 0
8.1 0.4 0
8.4 0.4 0
8.7 0.4 0
9 0.4 0
9.3 0.4 0
9.6 0.4 0
9.9 0.4 0
10.2 0.4 0
10.5 0.4 0
10.8 0.4 0
11.1 0.4 0
11.4 0.4 0
11.7 0.4 0
12 0.4 0
12.3 0.4 0
12.6 0.4 0
12.9 0.4 0
13.2 0.4 0
13.5 0.4 0
13.8 0.4 0
14.1 0.4 0
14.4 0.4 0
14.7 0.4 0
15 0.4 0
15.3 0.4 0
15.6 0.4 0
15.9 0.4 0
16.2 0.4 0
16.5 0.4 0
16.8 0.4 0
17.1 0.4 0
17.4 0.4 0
17.7 0.4 0
18 0.4 0
18.3 0.4 0
18.6 0.4 0
18.9 0.4 0
19.2 0.4 0
19.5 0.4 0
19.8 0.4 0
20.1 0.4 0
20.4 0.4 0
20.7 0.4 0
21 0.4 0
21.3 0.4 0
21.6 0.4 0
21.9 0.4 0
22.2 0.4 0
22.5 0.4 0
22.8 0.4 0
23.1 0.4 0
23.4 0.4 0
23.7 0.4 0
24 0.4 0
24.3 0.4 0
24.6 0.4 0
24.9 0.4 0
25.2 0.4 0
25.5 0.4 0
25.8 0.4 0
26.1 0.4 0
26.4 0.4 0
26.7 0.4 0
27 0.4 0
27.3 0.4 0
27.6 0.4 0
27.9 0.4 0
28.2 0.4 0
28.5 0.4 0
28.8 0.4 0
29.1 0.4 0
29.4 0.4 0
29.7 0.4 0
30 0.4 0
30.3 0.4 0
0 0.5 0
0.3 0.5 0
0.6 0.5 0
0.9 0.5 0
1.2 0.5 0
1.5 0.5 0
1.8 0.5 0
2.1 0.5 0
2.4 0.5 0
2.7 0.5 0
3 0.5 0
3.3 0.5 0
3.6 0.5 0
3.9 0.5 0
4.2 0.5 0
4.5 0.5 0
4.8 0.5 0
5.1 0.5 0
5.4 0.5 0
5.7 0.5 0
6 0.5 0
6.3 0.5 0
6.6 0.5 0
6.9 0.5 0
7.2 0.5 0
7.5 0.5 0
7.8 0.5 0
8.1 0.5 0
8.4 0.5 0
8.7 0.5 0
9 0.5 0
9.3 0.5 0
9.6 0.5 0
9.9 0.5 0
10.2 0.5 0
10.5 0.5 0
10.8 0.5 0
11.1 0.5 0
11.4 0.5 0
11.7 0.5 0
12 0.5 0
12.3 0.5 0
12.6 0.5 0
12.9 0.5 0
13.2 0.5 0
13.5 0.5 0
13.8 0.5 0
14.1 0.5 0
14.4 0.5 0
14.7 0.5 0
15 0.5 0
15.3 0.5 0
15.6 0.5 0
15.9 0.5 0
16.2 0.5 0
16.5 0.5 0
16.8 0.5 0
17.1 0.5 0
17.4 0.5 0
17.7 0.5 0
18 0.5 0
18.3 0.5 0
18.6 0.5 0
18.9 0.5 0
19.2 0.5 0
19.5 0.5 0
19.8 0.5 0
20.1 0.5 0
20.4 0.5 0
20.7 0.5 0
21 0.5 0
21.3 0.5 0
21.6 0.5 0
21.9 0.5 0
22.2 0.5 0
22.5 0.5 0
22.8 0.5 0
23.1 0.5 0
23.4 0.5 0
23.7 0.5 0
24 0.5 0
24.3 0.5 0
24.6 0.5 0
24.9 0.5 0
25.2 0.5 0
25.5 0.5 0
25.8 0.5 0
26.1 0.5 0
26.4 0.5 0
26.7 0.5 0
27 0.5 0
27.3 0.5 0
27.6 0.5 0
27.9 0.5 0
28.2 0.5 0
28.5 0.5 0
28.8 0.5 0
29.1 0.5 0
29.4 0.5 0
29.7 0.5 0
30 0.5 0
30.3 0.5 0
0 0.6 0
0.3 0.6 0
0.6 0.6 0
0.9 0.6 0
1.2 0.6 0
1.5 0.6 0
1.8 0.6 0
2.1 0.6 0
2.4 0.6 0
2.7 0.6 0
3 0.6 0
3.3 0.6 0
3.6 0.6 0
3.9 0.6 0
4.2 0.6 0
4.5 0.6 0
4.8 0.6 0
5.1 0.6 0
5.4 0.6 0
5.7 0.6 0
6 0.6 0
6.3 0.6 0
6.6 0.6 0
6.9 0.6 0
7.2 0.6 0
7.5 0.6 0
7.8 0.6 0
8.1 0.6 0
8.4 0.6 0
8.7 0.6 0
9 0.6 0
9.3 0.6 0
9.6 0.6 0
9.9 0.6 0
10.2 0.6 0
10.5 0.6 0
10.8 0.6 0
11.1 0.6 0
11.4 0.6 0
11.7 0.6 0
12 0.6 0
12.3 0.6 0
12.6 0.6 0
12.9 0.6 0
13.2 0.6 0
13.5 0.6 0
13.8 0.6 0
14.1 0.6 0
14.4 0.6 0
14.7 0.6 0
15 0.6 0
15.3 0.6 0
15.6 0.6 0
15.9 0.6 0
16.2 0.6 0
16.5 0.6 0
16.8 0.6 0
17.1 0.6 0
17.4 0.6 0
17.7 0.6 0
18 0.6 0
18.3 0.6 0
18.6 0.6 0
18.9 0.6 0
19.2 0.6 0
19.5 0.6 0
19.8 0.6 0
20.1 0.6 0
20.4 0.6 0
20.7 0.6 0
21 0.6 0
21.3 0.6 0
21.6 0.6 0
21.9 0.6 0
22.2 0.6 0
22.5 0.6 0
22.8 0.6 0
23.1 0.6 0
23.4 0.6 0
23.7 0.6 0
24 0.6 0
24.3 0.6 0
24.6 0.6 0
24.9 0.6 0
25.2 0.6 0
25.5 0.6 0
25.8 0.6 0
26.1 0.6 0
26.4 0.6 0
26.7 0.6 0
27 0.6 0
27.3 0.6 0
27.6 0.6 0
27.9 0.6 0
28.2 0.6 0
28.5 0.6 0
28.8 0.6 0
29.1 0.6 0
29.4 0.6 0
29.7 0.6 0
30 0.6 0
30.3 0.6 0
0 0.7 0
0.3 0.7 0
0.6 0.7 0
0.9 0.7 0
1.2 0.7 0
1.5 0.7 0
1.8 0.7 0
2.1 0.7 0
2.4 0.7 0
2.7 0.7 0
3 0.7 0
3.3 0.7 0
3.6 0.7 0
3.9 0.7 0
4.2 0.7 0
4.5 0.7 0
4.8 0.7 0
5.1 0.7 0
5.4 0.7 0
5.7 0.7 0
6 0.7 0
6.3 0.7 0
6.6 0.7 0
6.9 0.7 0
7.2 0.7 0
7.5 0.7 0
7.8 0.7 0
8.1 0.7 0
8.4 0.7 0
8.7 0.7 0
9 0.7 0
9.3 0.7 0
9.6 0.7 0
9.9 0.7 0
10.2 0.7 0
10.5 0.7 0
10.8 0.7 0
11.1 0.7 0
11.4 0.7 0
11.7 0.7 0
12 0.7 0
12.3 0.7 0
12.6 0.7 0
12.9 0.7 0
13.2 0.7 0
13.5 0.7 0
13.8 0.7 0
14.1 0.7 0
14.4 0.7 0
14.7 0.7 0
15 0.7 0
15.3 0.7 0
15.6 0.7 0
15.9 0.7 0
16.2 0.7 0
16.5 0.7 0
16.8 0.7 0
17.1 0.7 0
17.4 0.7 0
17.7 0.7 0
18 0.7 0
18.3 0.7 0
18.6 0.7 0
18.9 0.7 0
19.2 0.7 0
19.5 0.7 0
19.8 0.7 0
20.1 0.7 0
20.4 0.7 0
20.7 0.7 0
21 0.7 0
21.3 0.7 0
21.6 0.7 0
21.9 0.7 0
22.2 0.7 0
22.5 0.7 0
22.8 0.7 0
23.1 0.7 0
23.4 0.7 0
23.7 0.7 0
24 0.7 0
24.3 0.7 0
24.6 0.7 0
24.9 0.7 0
25.2 0.7 0
25.5 0.7 0
25.8 0.7 0
26.1 0.7 0
26.4 0.7 0
26.7 0.7 0
27 0.7 0
27.3 0.7 0
27.6 0.7 0
27.9 0.7 0
28.2 0.7 0
28.5 0.7 0
28.8 0.7 0
29.1 0.7 0
29.4 0.7 0
29.7 0.7 0
30 0.7 0
30.3 0.7 0
0 0.8 0
0.3 0.8 0
0.6 0.8 0
0.9 0.8 0
1.2 0.8 0
1.5 0.8 0
1.8 0.8 0
2.1 0.8 0
2.4 0.8 0
2.7 0.8 0
3 0.8 0
3.3 0.8 0
3.6 0.8 0
3.9 0.8 0
4.2 0.8 0
4.5 0.8 0
4.8 0.8 0
5.1 0.8 0
5.4 0.8 0
5.7 0.8 0
6 0.8 0
6.3 0.8 0
6.6 0.8 0
6.9 0.8 0
7.2 0.8 0
7.5 0.8 0
7.8 0.8 0
8.1 0.8 0
8.4 0.8 0
8.7 0.8 0
9 0.8 0
9.3 0.8 0
9.6 0.8 0
9.9 0.8 0
10.2 0.8 0
10.5 0.8 0
10.8 0.8 0
11.1 0.8 0
11.4 0.8 0
11.7 0.8 0
12 0.8 0
12.3 0.8 0
12.6 0.8 0
12.9 0.8 0
13.2 0.8 0
13.5 0.8 0
13.8 0.8 0
14.1 0.8 0
14.4 0.8 0
14.7 0.8 0
15 0.8 0
15.3 0.8 0
15.6 0.8 0
15.9 0.8 0
16.2 0.8 0
16.5 0.8 0
16.8 0.8 0
17.1 0.8 0
17.4 0.8 0
17.7 0.8 0
18 0.8 0
18.3 0.8 0
18.6 0.8 0
18.9 0.8 0
19.2 0.8 0
19.5 0.8 0
19.8 0.8 0
20.1 0.8 0
20.4 0.8 0
20.7 0.8 0
21 0.8 0
21.3 0.8 0
21.6 0.8 0
21.9 0.8 0
22.2 0.8 0
22.5 0.8 0
22.8 0.8 0
23.1 0.8 0
23.4 0.8 0
23.7 0.8 0
24 0.8 0
24.3 0.8 0
24.6 0.8 0
24.9 0.8 0
25.2 0.8 0
25.5 0.8 0
25.8 0.8 0
26.1 0.8 0
26.4 0.8 0
26.7 0.8 0
27 0.8 0
27.3 0.8 0
27.6 0.8 0
27.9 0.8 0
28.2 0.8 0
28.5 0.8 0
28.8 0.8 0
29.1 0.8 0
29.4 0.8 0
29.7 0.8 0
30 0.8 0
30.3 0.8 0
0 0.9 0
0.3 0.9 0
0.6 0.9 0
0.9 0.9 0
1.2 0.9 0
1.5 0.9 0
1.8 0.9 0
2.1 0.9 0
2.4 0.9 0
2.7 0.9 0
3 0.9 0
3.3 0.9 0
3.6 0.9 0
3.9 0.9 0
4.2 0.9 0
4.5 0.9 0
4.8 0.9 0
5.1 0.9 0
5.4 0.9 0
5.7 0.9 0
6 0.9 0
6.3 0.9 0
6.6 0.9 0
6.9 0.9 0
7.2 0.9 0
7.5 0.9 0
7.8 0.9 0
8.1 0.9 0
8.4 0.9 0
8.7 0.9 0
9 0.9 0
9.3 0.9 0
9.6 0.9 0
9.9 0.9 0
10.2 0.9 0
10.5 0.9 0
10.8 0.9 0
11.1 0.9 0
11.4 0.9 0
11.7 0.9 0
12 0.9 0
12.3 0.9 0
12.6 0.9 0
12.9 0.9 0
13.2 0.9 0
13.5 0.9 0
13.8 0.9 0
14.1 0.9 0
14.4 0.9 0
14.7 0.9 0
15 0.9 0
15.3 0.9 0
15.6 0.9 0
15.9 0.9 0
16.2 0.9 0
16.5 0.9 0
16.8 0.9 0
17.1 0.9 0
17.4 0.9 0
17.7 0.9 0
18 0.9 0
18.3 0.9 0
18.6 0.9 0
18.9 0.9 0
19.2 0.9 0
19.5 0.9 0
19.8 0.9 0
20.1 0.9 0
20.4 0.9 0
20.7 0.9 0
21 0.9 0
21.3 0.9 0
21.6 0.9 0
21.9 0.9 0
22.2 0.9 0
22.5 0.9 0
22.8 0.9 0
23.1 0.9 0
23.4 0.9 0
23.7 0.9 0
24 0.9 0
24.3 0.9 0
24.6 0.9 0
24.9 0.9 0
25.2 0.9 0
25.5 0.9 0
25.8 0.9 0
26.1 0.9 0
26.4 0.9 0
26.7 0.9 0
27 0.9 0
27.3 0.9 0
27.6 0.9 0
27.9 0.9 0
28.2 0.9 0
28.5 0.9 0
28.8 0.9 0
29.1 0.9 0
29.4 0.9 0
29.7 0.9 0
30 0.9 0
30.3 0.9 0
0 1 0
0.3 1 0
0.6 1 0
0.9 1 0
1.2 1 0
1.5 1 0
1.8 1 0
2.1 1 0
2.4 1 0
2.7 1 0
3 1 0
3.3 1 0
3.6 1 0
3.9 1 0
4.2 1 0
4.5 1 0
4.8 1 0
5.1 1 0
5.4 1 0
5.7 1 0
6 1 0
6.3 1 0
6.6 1 0
6.9 1 0
7.2 1 0
7.5 1 0
7.8 1 0
8.1 1 0
8.4 1 0
8.7 1 0
9 1 0
9.3 1 0
9.6 1 0
9.9 1 0
10.2 1 0
10.5 1 0
10.8 1 0
11.1 1 0
11.4 1 0
11.7 1 0
12 1 0
12.3 1 0
12.6 1 0
12.9 1 0
13.2 1 0
13.5 1 0
13.8 1 0
14.1 1 0
14.4 1 0
14.7 1 0
15 1 0
15.3 1 0
15.6 1 0
15.9 1 0
16.2 1 0
16.5 1 0
16.8 1 0
17.1 1 0
17.4 1 0
17.7 1 0
18 1 0
18.3 1 0
18.6 1 0
18.9 1 0
19.2 1 0
19.5 1 0
19.8 1 0
20.1 1 0
20.4 1 0
20.7 1 0
21 1 0
21.3 1 0
21.6 1 0
21.9 1 0
22.2 1 0
22.5 1 0
22.8 1 0
23.1 1 0
23.4 1 0
23.7 1 0
24 1 0
24.3 1 0
24.6 1 0
24.9 1 0
25.2 1 0
25.5 1 0
25.8 1 0
26.1 1 0
26.4 1 0
26.7 1 0
27 1 0
27.3 1 0
27.6 1 0
27.9 1 0
28.2 1 0
28.5 1 0
28.8 1 0
29.1 1 0
29.4 1 0
29.7 1 0
30 1 0
30.3 1 0
0 1.1 0
0.3 1.1 0
0.6 1.1 0
0.9 1.1 0
1.2 1.1 0
1.5 1.1 0
1.8 1.1 0
2.1 1.1 0
2.4 1.1 0
2.7 1.1 0
3 1.1 0
3.3 1.1 0
3.6 1.1 0
3.9 1.1 0
4.2 1.1 0
4.5 1.1 0
4.8 1.1 0
5.1 1.1 0
5.4 1.1 0
5.7 1.1 0
6 1.1 0
6.3 1.1 0
6.6 1.1 0
6.9 1.1 0
7.2 1.1 0
7.5 1.1 0
7.8 1.1 0
8.1 1.1 0
8.4 1.1 0
8.7 1.1 0
9 1.1 0
9.3 1.1 0
9.6 1.1 0
9.9 1.1 0
10.2 1.1 0
10.5 1.1 0
10.8 1.1 0
11.1 1.1 0
11.4 1.1 0
11.7 1.1 0
12 1.1 0
12.3 1.1 0
12.6 1.1 0
12.9 1.1 0
13.2 1.1 0
13.5 1.1 0
13.8 1.1 0
14.1 1.1 0
14.4 1.1 0
14.7 1.1 0
15 1.1 0
15.3 1.1 0
15.6 1.1 0
15.9 1.1 0
16.2 1.1 0
16.5 1.1 0
16.8 1.1 0
17.1 1.1 0
17.4 1.1 0
17.7 1.1 0
18 1.1 0
18.3 1.1 0
18.6 1.1 0
18.9 1.1 0
19.2 1.1 0
19.5 1.1 0
19.8 1.1 0
20.1 1.1 0
20.4 1.1 0
20.7 1.1 0
21 1.1 0
21.3 1.1 0
21.6 1.1 0
21.9 1.1 0
22.2 1.1 0
22.5 1.1 0
22.8 1.1 0
23.1 1.1 0
23.4 1.1 0
23.7 1.1 0
24 1.1 0
24.3 1.1 0
24.6 1.1 0
24.9 1.1 0
25.2 1.1 0
25.5 1.1 0
25.8 1.1 0
26.1 1.1 0
26.4 1.1 0
26.7 1.1 0
27 1.1 0
27.3 1.1 0
27.6 1.1 0
27.9 1.1 0
28.2 1.1 0
28.5 1.1 0
28.8 1.1 0
29.1 1.1 0
29.4 1.1 0
29.7 1.1 0
30 1.1 0
30.3 1.1 0
0 1.2 0
0.3 1.2 0
0.6 1.2 0
0.9 1.2 0
1.2 1.2 0
1.5 1.2 0
1.8 1.2 0
2.1 1.2 0
2.4 1.2 0
2.7 1.2 0
3 1.2 0
3.3 1.2 0
3.6 1.2 0
3.9 1.2 0
4.2 1.2 0
4.5 1.2 0
4.8 1.2 0
5.1 1.2 0
5.4 1.2 0
5.7 1.2 0
6 1.2 0
6.3 1.2 0
6.6 1.2 0
6.9 1.2 0
7.2 1.2 0
7.5 1.2 0
7.8 1.2 0
8.1 1.2 0
8.4 1.2 0
8.7 1.2 0
9 1.2 0
9.3 1.2 0
9.6 1.2 0
9.9 1.2 0
10.2 1.2 0
10.5 1.2 0
10.8 1.2 0
11.1 1.2 0
11.4 1.2 0
11.7 1.2 0
12 1.2 0
12.3 1.2 0
12.6 1.2 0
12.9 1.2 0
13.2 1.2 0
13.5 1.2 0
13.8 1.2 0
14.1 1.2 0
14.4 1.2 0
14.7 1.2 0
15 1.2 0
15.3 1.2 0
15.6 1.2 0
15.9 1.2 0
16.2 1.2 0
16.5 1.2 0
16.8 1.2 0
17.1 1.2 0
17.4 1.2 0
17.7 1.2 0
18 1.2 0
18.3 1.2 0
18.6 1.2 0
18.9 1.2 0
19.2 1.2 0
19.5 1.2 0
19.8 1.2 0
20.1 1.2 0
20.4 1.2 0
20.7 1.2 0
21 1.2 0
21.3 1.2 0
21.6 1.2 0
21.9 1.2 0
22.2 1.2 0
22.5 1.2 0
22.8 1.2 0
23.1 1.2 0
23.4 1.2 0
23.7 1.2 0
24 1.2 0
24.3 1.2 0
24.6 1.2 0
24.9 1.2 0
25.2 1.2 0
25.5 1.2 0
25.8 1.2 0
26.1 1.2 0
26.4 1.2 0
26.7 1.2 0
27 1.2 0
27.3 1.2 0
27.6 1.2 0
27.9 1.2 0
28.2 1.2 0
28.5 1.2 0
28.8 1.2 0
29.1 1.2 0
29.4 1.2 0
29.7 1.2 0
30 1.2 0
30.3 1.2 0

POINT_DATA 1326

SCALARS phi double
LOOKUP_TABLE default
1
1
1
1
0.999999
0.999994
0.999983
0.999957
0.99991
0.99983
0.999706
0.999525
0.999278
0.998951
0.998536
0.998024
0.997406
0.996678
0.995833
0.994869
0.993783
0.992574
0.991241
0.989786
0.98821
0.986517
0.984708
0.982788
0.98076
0.97863
0.976401
0.97408
0.971669
0.969175
0.966603
0.963958
0.961244
0.958466
0.95563
0.95274
0.9498
0.946814
0.943788
0.940724
0.937626
0.934498
0.931342
0.928161
0.924954
0.921724
0.91847
0.915191
0.911883
0.908544
0.905169
0.901752
0.898286
0.894763
0.891175
0.887511
0.883763
0.879919
0.875969
0.871902
0.867707
0.863375
0.858896
0.85426
0.849458
0.844484
0.83933
0.833991
0.828462
0.822739
0.81682
0.810703
0.804387
0.797873
0.791163
0.784259
0.777164
0.769882
0.762418
0.754779
0.746969
0.738995
0.730866
0.722587
0.714168
0.705616
0.696941
0.688149
0.679251
0.670255
0.661168
0.652007
0.642751
0.63351
0.623946
0.615268
0.603245
0.603245
1
1
1
1
0.999999
0.999994
0.999983
0.999957
0.99991
0.99983
0.999706
0.999525
0.999278
0.998951
0.998536
0.998024
0.997406
0.996678
0.995833
0.994869
0.993783
0.992574
0.991241
0.989786
0.98821
0.986517
0.984708
0.982788
0.98076
0.97863
0.976401
0.97408
0.971669
0.969175
0.966603
0.963958
0.961244
0.958466
0.95563
0.95274
0.9498
0.946814
0.943788
0.940724
0.937626
0.934498
0.931342
0.928161
0.924954
0.921724
0.91847
0.915191
0.911883
0.908544
0.905169
0.901752
0.898286
0.894763
0.891175
0.887511
0.883763
0.879919
0.875969
0.871902
0.867707
0.863375
0.858896
0.85426
0.849458
0.844484
0.83933
0.833991
0.828462
0.822739
0.81682
0.810703
0.804387
0.797873
0.791163
0.784259
0.777164
0.769882
0.762418
0.754779
0.746969
0.738995
0.730866
0.722587
0.714168
0.705616
0.696941
0.688149
0.679251
0.670255
0.661168
0.652007
0.642751
0.63351
0.623946
0.615268
0.603245
0.603245
1
1
1
0.999996
0.999983
0.999954
0.999898
0.999804
0.999658
0.999446
0.999157
0.998778
0.998299
0.997714
0.997014
0.996196
0.995256
0.994192
0.993003
0.991689
0.990252
0.988694
0.987016
0.985224
0.983319
0.981307
0.979192
0.976978
0.974671
0.972275
0.969796
0.967238
0.964606
0.961905
0.959141
0.956317
0.953439
0.950511
0.947537
0.944521
0.941468
0.93838
0.935263
0.932119
0.928952
0.925764
0.922558
0.919338
0.916104
0.912859
0.909603
0.906337
0.903061
0.899775
0.896476
0.893162
0.889829
0.886474
0.883092
0.879676
0.876221
0.872718
0.869162
0.865542
0.861852
0.858082
0.854224
0.850268
0.846207
0.842032
0.837736
0.83331
0.828749
0.824045
0.819194
0.814191
0.809031
0.803711
0.79823
0.792585
0.786776
0.780802
0.774664
0.768364
0.761904
0.755285
0.748513
0.74159
0.734521
0.72731
0.719964
0.712487
0.704885
0.697165
0.689331
0.681399
0.673341
0.665283
0.656834
0.649319
0.638387
0.638387
0.999997
1
0.99998
0.999896
0.999724
0.999434
0.998999
0.998397
0.997613
0.996636
0.995464
0.994099
0.992547
0.990816
0.988916
0.986859
0.984655
0.982317
0.979854
0.977278
0.974598
0.971826
0.968969
0.966037
0.963036
0.959976
0.956862
0.953702
0.9505
0.947262
0.943993
0.940698
0.937381
0.934046
0.930696
0.927335
0.923965
0.920589
0.917211
0.913831
0.910453
0.907078
0.903709
0.900347
0.896993
0.893648
0.890316
0.886995
0.883688
0.880395
0.877117
0.873854
0.870606
0.867374
0.864157
0.860954
0.857763
0.854584
0.851414
0.84825
0.845089
0.841928
0.838763
0.835589
0.8324
0.829193
0.825961
0.822697
0.819397
0.816053
0.812659
0.809208
0.805694
0.802111
0.798453
0.794713
0.790886
0.786966
0.782949
0.77883
0.774605
0.770269
0.765821
0.761257
0.756574
0.751773
0.74685
0.741806
0.73664
0.731352
0.725944
0.720416
0.714769
0.709007
0.703129
0.697147
0.691031
0.684895
0.678382
0.672643
0.664054
0.664054
0.999999
1
0.99943
0.998224
0.996402
0.994008
0.991093
0.987716
0.983939
0.979828
0.975446
0.970853
0.966102
0.961239
0.9563
0.951318
0.946317
0.94132
0.936342
0.931396
0.926494
0.921643
0.91685
0.91212
0.907456
0.902862
0.898337
0.893885
0.889504
0.885196
0.880959
0.876793
0.872697
0.868669
0.864709
0.860816
0.856986
0.85322
0.849516
0.845871
0.842285
0.838756
0.835282
0.831862
0.828495
0.825179
0.821912
0.818694
0.815523
0.812398
0.809318
0.806281
0.803286
0.800332
0.797418
0.794542
0.791703
0.788899
0.786129
0.783391
0.780683
0.778004
0.775349
0.772718
0.770107
0.767514
0.764934
0.762365
0.759802
0.757243
0.754683
0.752117
0.749541
0.746951
0.744341
0.741708
0.739047
0.736352
0.73362
0.730845
0.728023
0.72515
0.722221
0.719233
0.716181
0.713061
0.709872
0.706608
0.703268
0.699849
0.696348
0.692764
0.689094
0.685339
0.681493
0.677566
0.673529
0.669466
0.665114
0.661293
0.655464
0.655464
1.00149
0.998508
0.989831
0.978334
0.965614
0.952521
0.939508
0.926817
0.914586
0.90289
0.891766
0.881225
0.871261
0.861853
0.852973
0.844592
0.836675
0.829189
0.822103
0.815387
0.809012
0.802953
0.797186
0.791689
0.786442
0.781426
0.776627
0.772028
0.767615
0.763377
0.759301
0.755378
0.751598
0.747951
0.74443
0.741028
0.737737
0.734551
0.731464
0.728471
0.725567
0.722746
0.720006
0.717341
0.714749
0.712224
0.709765
0.707368
0.70503
0.702749
0.700522
0.698346
0.69622
0.694141
0.692108
0.690117
0.688169
0.68626
0.684389
0.682554
0.680754
0.678988
0.677252
0.675546
0.673868
0.672216
0.670588
0.668982
0.667396
0.665827
0.664275
0.662735
0.661206
0.659685
0.658169
0.656656
0.655142
0.653625
0.652101
0.650567
0.64902
0.647457
0.645875
0.644269
0.642638
0.640978
0.639284
0.637556
0.635788
0.633978
0.632124
0.630222
0.628269
0.626263
0.624201
0.622085
0.619896
0.617683
0.615288
0.613188
0.60992
0.60992
1.04825
0.951752
0.875703
0.818253
0.774815
0.7415
0.715492
0.694815
0.678089
0.664344
0.652885
0.64321
0.634947
0.627818
0.62161
0.616159
0.611336
0.607038
0.603184
0.599708
0.596557
0.593685
0.591057
0.588642
0.586414
0.584353
0.582438
0.580656
0.578992
0.577435
0.575975
0.574602
0.57331
0.572092
0.57094
0.569852
0.56882
0.567842
0.566913
0.56603
0.56519
0.56439
0.563628
0.562901
0.562207
0.561545
0.560912
0.560306
0.559727
0.559173
0.558642
0.558134
0.557647
0.557181
0.556733
0.556304
0.555892
0.555497
0.555117
0.554753
0.554402
0.554066
0.553742
0.55343
0.553129
0.552839
0.552559
0.552288
0.552025
0.55177
0.551521
0.551277
0.551038
0.550802
0.550568
0.550334
0.5501
0.549865
0.549625
0.549381
0.549129
0.548869
0.548599
0.548316
0.548019
0.547706
0.547374
0.547022
0.546646
0.546245
0.545817
0.545359
0.544869
0.544344
0.543782
0.543183
0.542536
0.541861
0.541093
0.540413
0.539279
0.539279
-0.0446953
0.0446953
0.107508
0.152458
0.185771
0.211397
0.231802
0.248527
0.262546
0.274503
0.284836
0.293865
0.301831
0.308922
0.315285
0.32104
0.326285
0.331098
0.335543
0.339671
0.343527
0.347145
0.350555
0.353783
0.356848
0.359768
0.362558
0.365231
0.367799
0.37027
0.372654
0.374956
0.377185
0.379346
0.381443
0.383482
0.385467
0.387401
0.389287
0.39113
0.392931
0.394693
0.396418
0.398109
0.399767
0.401394
0.402992
0.404563
0.406107
0.407626
0.409121
0.410593
0.412043
0.413473
0.414882
0.416272
0.417644
0.418997
0.420334
0.421653
0.422957
0.424245
0.425517
0.426775
0.428018
0.429247
0.430461
0.431662
0.43285
0.434024
0.435184
0.436331
0.437464
0.438584
0.43969
0.440782
0.44186
0.442922
0.44397
0.445001
0.446016
0.447014
0.447993
0.448953
0.449893
0.450812
0.451709
0.452581
0.453428
0.454249
0.455041
0.455803
0.456533
0.45723
0.45789
0.458513
0.459097
0.459637
0.460141
0.460565
0.461067
0.461067
-0.00141662
0.00141662
0.00819779
0.0166628
0.0258774
0.0354226
0.0450904
0.0547523
0.0643113
0.0736887
0.0828235
0.0916734
0.100213
0.108431
0.116327
0.123909
0.131188
0.138179
0.144897
0.15136
0.157583
0.163582
0.169371
0.174965
0.180376
0.185617
0.190698
0.19563
0.200421
0.205082
0.20962
0.214041
0.218354
0.222564
0.226678
0.230699
0.234634
0.238487
0.242262
0.245962
0.249592
0.253155
0.256653
0.260089
0.263467
0.266788
0.270055
0.273269
0.276433
0.279549
0.282617
0.28564
0.28862
0.291556
0.294452
0.297307
0.300123
0.302902
0.305643
0.308348
0.311018
0.313654
0.316256
0.318824
0.321361
0.323866
0.326339
0.328782
0.331195
0.333578
0.335931
0.338255
0.34055
0.342816
0.345053
0.347261
0.34944
0.35159
0.35371
0.355801
0.357862
0.359892
0.36189
0.363856
0.365789
0.367688
0.369552
0.37138
0.37317
0.374921
0.376632
0.3783
0.379925
0.381503
0.383034
0.384515
0.385947
0.387313
0.388663
0.38982
0.391366
0.391366
-1.11745e-05
1.11745e-05
0.00042735
0.00124909
0.0024865
0.00414882
0.00623841
0.00874491
0.0116437
0.0148985
0.0184666
0.0223034
0.0263657
0.0306143
0.0350145
0.0395361
0.0441535
0.0488449
0.0535919
0.058379
0.0631933
0.0680237
0.0728611
0.0776978
0.0825273
0.0873442
0.0921439
0.0969225
0.101677
0.106404
0.111102
0.115769
0.120403
0.125003
0.129567
0.134094
0.138584
0.143036
0.14745
0.151824
0.156158
0.160453
0.164707
0.168921
0.173093
0.177225
0.181317
0.185367
0.189376
0.193344
0.197271
0.201158
0.205003
0.208809
0.212573
0.216298
0.219982
0.223626
0.227231
0.230796
0.234322
0.237809
0.241257
0.244666
0.248037
0.251369
0.254663
0.257919
0.261136
0.264315
0.267455
0.270557
0.273619
0.276643
0.279627
0.282571
0.285474
0.288336
0.291156
0.293932
0.296665
0.299352
0.301993
0.304586
0.30713
0.309624
0.312065
0.314451
0.316782
0.319054
0.321267
0.323417
0.325503
0.327522
0.329471
0.331348
0.333155
0.334871
0.336553
0.337997
0.339891
0.339891
1.77951e-06
-1.77951e-06
1.46452e-05
7.0561e-05
0.000191297
0.000407207
0.000751293
0.00125576
0.0019487
0.0028519
0.00398018
0.00534174
0.00693923
0.00877085
0.0108314
0.0131134
0.0156072
0.0183022
0.0211871
0.0242496
0.0274776
0.0308589
0.0343811
0.0380325
0.0418013
0.0456763
0.0496469
0.0537026
0.0578339
0.0620314
0.0662865
0.0705911
0.0749374
0.0793184
0.0837275
0.0881584
0.0926054
0.0970633
0.101527
0.105993
0.110455
0.114912
0.119358
0.123791
0.128208
0.132607
0.136984
0.141338
0.145667
0.149969
0.154242
0.158485
0.162697
0.166877
0.171022
0.175134
0.17921
0.183249
0.187253
0.191218
0.195146
0.199035
0.202885
0.206696
0.210466
0.214195
0.217883
0.221529
0.225132
0.228691
0.232206
0.235675
0.239097
0.242471
0.245797
0.249071
0.252294
0.255462
0.258576
0.261632
0.264628
0.267563
0.270435
0.27324
0.275978
0.278644
0.281237
0.283754
0.286193
0.28855
0.290823
0.293009
0.295104
0.297107
0.299014
0.300822
0.30253
0.304126
0.305645
0.306943
0.308533
0.308533
1.29312e-07
-1.29312e-07
2.38864e-07
4.46745e-06
2.01123e-05
6.11026e-05
0.000148704
0.000310434
0.000577097
0.000979211
0.00154414
0.00229449
0.0032476
0.00441569
0.00580634
0.007423
0.00926564
0.0113312
0.0136141
0.0161068
0.0188002
0.0216839
0.0247468
0.027977
0.0313627
0.0348917
0.0385521
0.0423319
0.0462198
0.0502049
0.0542764
0.0584245
0.0626397
0.0669129
0.0712358
0.0756005
0.0799998
0.0844268
0.0888753
0.0933393
0.0978135
0.102293
0.106773
0.11125
0.115719
0.120177
0.124621
0.129048
0.133456
0.137842
0.142203
0.146538
0.150846
0.155123
0.15937
0.163584
0.167764
0.17191
0.17602
0.180092
0.184127
0.188122
0.192078
0.195992
0.199864
0.203693
0.207477
0.211215
0.214906
0.218548
0.22214
0.225679
0.229164
0.232593
0.235964
0.239275
0.242523
0.245706
0.248821
0.251865
0.254837
0.257732
0.260549
0.263283
0.265932
0.268494
0.270963
0.273338
0.275616
0.277792
0.279864
0.281829
0.283683
0.285423
0.287046
0.28855
0.289931
0.291185
0.292321
0.293279
0.294308
0.294308
1.29312e-07
-1.29312e-07
2.38864e-07
4.46745e-06
2.01123e-05
6.11026e-05
0.000148704
0.000310434
0.000577097
0.000979211
0.00154414
0.00229449
0.0032476
0.00441569
0.00580634
0.007423
0.00926564
0.0113312
0.0136141
0.0161068
0.0188002
0.0216839
0.0247468
0.027977
0.0313627
0.0348917
0.0385521
0.0423319
0.0462198
0.0502049
0.0542764
0.0584245
0.0626397
0.0669129
0.0712358
0.0756005
0.0799998
0.0844268
0.0888753
0.0933393
0.0978135
0.102293
0.106773
0.11125
0.115719
0.120177
0.124621
0.129048
0.133456
0.137842
0.142203
0.146538
0.150846
0.155123
0.15937
0.163584
0.167764
0.17191
0.17602
0.180092
0.184127
0.188122
0.192078
0.195992
0.199864
0.203693
0.207477
0.211215
0.214906
0.218548
0.22214
0.225679
0.229164
0.232593
0.235964
0.239275
0.242523
0.245706
0.248821
0.251865
0.254837
0.257732
0.260549
0.263283
0.265932
0.268494
0.270963
0.273338
0.275616
0.277792
0.279864
0.281829
0.283683
0.285423
0.287046
0.28855
0.289931
0.291185
0.292321
0.293279
0.294308
0.294308
