# vtk DataFile Version 2.0
FlowField
ASCII
DATASET STRUCTURED_GRID
DIMENSIONS 102 1 12 
POINTS 1224 double
0 0 0
0.4 0 0
0.8 0 0
1.2 0 0
1.6 0 0
2 0 0
2.4 0 0
2.8 0 0
3.2 0 0
3.6 0 0
4 0 0
4.4 0 0
4.8 0 0
5.2 0 0
5.6 0 0
6 0 0
6.4 0 0
6.8 0 0
7.2 0 0
7.6 0 0
8 0 0
8.4 0 0
8.8 0 0
9.2 0 0
9.6 0 0
10 0 0
10.4 0 0
10.8 0 0
11.2 0 0
11.6 0 0
12 0 0
12.4 0 0
12.8 0 0
13.2 0 0
13.6 0 0
14 0 0
14.4 0 0
14.8 0 0
15.2 0 0
15.6 0 0
16 0 0
16.4 0 0
16.8 0 0
17.2 0 0
17.6 0 0
18 0 0
18.4 0 0
18.8 0 0
19.2 0 0
19.6 0 0
20 0 0
20.4 0 0
20.8 0 0
21.2 0 0
21.6 0 0
22 0 0
22.4 0 0
22.8 0 0
23.2 0 0
23.6 0 0
24 0 0
24.4 0 0
24.8 0 0
25.2 0 0
25.6 0 0
26 0 0
26.4 0 0
26.8 0 0
27.2 0 0
27.6 0 0
28 0 0
28.4 0 0
28.8 0 0
29.2 0 0
29.6 0 0
30 0 0
30.4 0 0
30.8 0 0
31.2 0 0
31.6 0 0
32 0 0
32.4 0 0
32.8 0 0
33.2 0 0
33.6 0 0
34 0 0
34.4 0 0
34.8 0 0
35.2 0 0
35.6 0 0
36 0 0
36.4 0 0
36.8 0 0
37.2 0 0
37.6 0 0
38 0 0
38.4 0 0
38.8 0 0
39.2 0 0
39.6 0 0
40 0 0
40.4 0 0
0 0.1 0
0.4 0.1 0
0.8 0.1 0
1.2 0.1 0
1.6 0.1 0
2 0.1 0
2.4 0.1 0
2.8 0.1 0
3.2 0.1 0
3.6 0.1 0
4 0.1 0
4.4 0.1 0
4.8 0.1 0
5.2 0.1 0
5.6 0.1 0
6 0.1 0
6.4 0.1 0
6.8 0.1 0
7.2 0.1 0
7.6 0.1 0
8 0.1 0
8.4 0.1 0
8.8 0.1 0
9.2 0.1 0
9.6 0.1 0
10 0.1 0
10.4 0.1 0
10.8 0.1 0
11.2 0.1 0
11.6 0.1 0
12 0.1 0
12.4 0.1 0
12.8 0.1 0
13.2 0.1 0
13.6 0.1 0
14 0.1 0
14.4 0.1 0
14.8 0.1 0
15.2 0.1 0
15.6 0.1 0
16 0.1 0
16.4 0.1 0
16.8 0.1 0
17.2 0.1 0
17.6 0.1 0
18 0.1 0
18.4 0.1 0
18.8 0.1 0
19.2 0.1 0
19.6 0.1 0
20 0.1 0
20.4 0.1 0
20.8 0.1 0
21.2 0.1 0
21.6 0.1 0
22 0.1 0
22.4 0.1 0
22.8 0.1 0
23.2 0.1 0
23.6 0.1 0
24 0.1 0
24.4 0.1 0
24.8 0.1 0
25.2 0.1 0
25.6 0.1 0
26 0.1 0
26.4 0.1 0
26.8 0.1 0
27.2 0.1 0
27.6 0.1 0
28 0.1 0
28.4 0.1 0
28.8 0.1 0
29.2 0.1 0
29.6 0.1 0
30 0.1 0
30.4 0.1 0
30.8 0.1 0
31.2 0.1 0
31.6 0.1 0
32 0.1 0
32.4 0.1 0
32.8 0.1 0
33.2 0.1 0
33.6 0.1 0
34 0.1 0
34.4 0.1 0
34.8 0.1 0
35.2 0.1 0
35.6 0.1 0
36 0.1 0
36.4 0.1 0
36.8 0.1 0
37.2 0.1 0
37.6 0.1 0
38 0.1 0
38.4 0.1 0
38.8 0.1 0
39.2 0.1 0
39.6 0.1 0
40 0.1 0
40.4 0.1 0
0 0.2 0
0.4 0.2 0
0.8 0.2 0
1.2 0.2 0
1.6 0.2 0
2 0.2 0
2.4 0.2 0
2.8 0.2 0
3.2 0.2 0
3.6 0.2 0
4 0.2 0
4.4 0.2 0
4.8 0.2 0
5.2 0.2 0
5.6 0.2 0
6 0.2 0
6.4 0.2 0
6.8 0.2 0
7.2 0.2 0
7.6 0.2 0
8 0.2 0
8.4 0.2 0
8.8 0.2 0
9.2 0.2 0
9.6 0.2 0
10 0.2 0
10.4 0.2 0
10.8 0.2 0
11.2 0.2 0
11.6 0.2 0
12 0.2 0
12.4 0.2 0
12.8 0.2 0
13.2 0.2 0
13.6 0.2 0
14 0.2 0
14.4 0.2 0
14.8 0.2 0
15.2 0.2 0
15.6 0.2 0
16 0.2 0
16.4 0.2 0
16.8 0.2 0
17.2 0.2 0
17.6 0.2 0
18 0.2 0
18.4 0.2 0
18.8 0.2 0
19.2 0.2 0
19.6 0.2 0
20 0.2 0
20.4 0.2 0
20.8 0.2 0
21.2 0.2 0
21.6 0.2 0
22 0.2 0
22.4 0.2 0
22.8 0.2 0
23.2 0.2 0
23.6 0.2 0
24 0.2 0
24.4 0.2 0
24.8 0.2 0
25.2 0.2 0
25.6 0.2 0
26 0.2 0
26.4 0.2 0
26.8 0.2 0
27.2 0.2 0
27.6 0.2 0
28 0.2 0
28.4 0.2 0
28.8 0.2 0
29.2 0.2 0
29.6 0.2 0
30 0.2 0
30.4 0.2 0
30.8 0.2 0
31.2 0.2 0
31.6 0.2 0
32 0.2 0
32.4 0.2 0
32.8 0.2 0
33.2 0.2 0
33.6 0.2 0
34 0.2 0
34.4 0.2 0
34.8 0.2 0
35.2 0.2 0
35.6 0.2 0
36 0.2 0
36.4 0.2 0
36.8 0.2 0
37.2 0.2 0
37.6 0.2 0
38 0.2 0
38.4 0.2 0
38.8 0.2 0
39.2 0.2 0
39.6 0.2 0
40 0.2 0
40.4 0.2 0
0 0.3 0
0.4 0.3 0
0.8 0.3 0
1.2 0.3 0
1.6 0.3 0
2 0.3 0
2.4 0.3 0
2.8 0.3 0
3.2 0.3 0
3.6 0.3 0
4 0.3 0
4.4 0.3 0
4.8 0.3 0
5.2 0.3 0
5.6 0.3 0
6 0.3 0
6.4 0.3 0
6.8 0.3 0
7.2 0.3 0
7.6 0.3 0
8 0.3 0
8.4 0.3 0
8.8 0.3 0
9.2 0.3 0
9.6 0.3 0
10 0.3 0
10.4 0.3 0
10.8 0.3 0
11.2 0.3 0
11.6 0.3 0
12 0.3 0
12.4 0.3 0
12.8 0.3 0
13.2 0.3 0
13.6 0.3 0
14 0.3 0
14.4 0.3 0
14.8 0.3 0
15.2 0.3 0
15.6 0.3 0
16 0.3 0
16.4 0.3 0
16.8 0.3 0
17.2 0.3 0
17.6 0.3 0
18 0.3 0
18.4 0.3 0
18.8 0.3 0
19.2 0.3 0
19.6 0.3 0
20 0.3 0
20.4 0.3 0
20.8 0.3 0
21.2 0.3 0
21.6 0.3 0
22 0.3 0
22.4 0.3 0
22.8 0.3 0
23.2 0.3 0
23.6 0.3 0
24 0.3 0
24.4 0.3 0
24.8 0.3 0
25.2 0.3 0
25.6 0.3 0
26 0.3 0
26.4 0.3 0
26.8 0.3 0
27.2 0.3 0
27.6 0.3 0
28 0.3 0
28.4 0.3 0
28.8 0.3 0
29.2 0.3 0
29.6 0.3 0
30 0.3 0
30.4 0.3 0
30.8 0.3 0
31.2 0.3 0
31.6 0.3 0
32 0.3 0
32.4 0.3 0
32.8 0.3 0
33.2 0.3 0
33.6 0.3 0
34 0.3 0
34.4 0.3 0
34.8 0.3 0
35.2 0.3 0
35.6 0.3 0
36 0.3 0
36.4 0.3 0
36.8 0.3 0
37.2 0.3 0
37.6 0.3 0
38 0.3 0
38.4 0.3 0
38.8 0.3 0
39.2 0.3 0
39.6 0.3 0
40 0.3 0
40.4 0.3 0
0 0.4 0
0.4 0.4 0
0.8 0.4 0
1.2 0.4 0
1.6 0.4 0
2 0.4 0
2.4 0.4 0
2.8 0.4 0
3.2 0.4 0
3.6 0.4 0
4 0.4 0
4.4 0.4 0
4.8 0.4 0
5.2 0.4 0
5.6 0.4 0
6 0.4 0
6.4 0.4 0
6.8 0.4 0
7.2 0.4 0
7.6 0.4 0
8 0.4 0
8.4 0.4 0
8.8 0.4 0
9.2 0.4 0
9.6 0.4 0
10 0.4 0
10.4 0.4 0
10.8 0.4 0
11.2 0.4 0
11.6 0.4 0
12 0.4 0
12.4 0.4 0
12.8 0.4 0
13.2 0.4 0
13.6 0.4 0
14 0.4 0
14.4 0.4 0
14.8 0.4 0
15.2 0.4 0
15.6 0.4 0
16 0.4 0
16.4 0.4 0
16.8 0.4 0
17.2 0.4 0
17.6 0.4 0
18 0.4 0
18.4 0.4 0
18.8 0.4 0
19.2 0.4 0
19.6 0.4 0
20 0.4 0
20.4 0.4 0
20.8 0.4 0
21.2 0.4 0
21.6 0.4 0
22 0.4 0
22.4 0.4 0
22.8 0.4 0
23.2 0.4 0
23.6 0.4 0
24 0.4 0
24.4 0.4 0
24.8 0.4 0
25.2 0.4 0
25.6 0.4 0
26 0.4 0
26.4 0.4 0
26.8 0.4 0
27.2 0.4 0
27.6 0.4 0
28 0.4 0
28.4 0.4 0
28.8 0.4 0
29.2 0.4 0
29.6 0.4 0
30 0.4 0
30.4 0.4 0
30.8 0.4 0
31.2 0.4 0
31.6 0.4 0
32 0.4 0
32.4 0.4 0
32.8 0.4 0
33.2 0.4 0
33.6 0.4 0
34 0.4 0
34.4 0.4 0
34.8 0.4 0
35.2 0.4 0
35.6 0.4 0
36 0.4 0
36.4 0.4 0
36.8 0.4 0
37.2 0.4 0
37.6 0.4 0
38 0.4 0
38.4 0.4 0
38.8 0.4 0
39.2 0.4 0
39.6 0.4 0
40 0.4 0
40.4 0.4 0
0 0.5 0
0.4 0.5 0
0.8 0.5 0
1.2 0.5 0
1.6 0.5 0
2 0.5 0
2.4 0.5 0
2.8 0.5 0
3.2 0.5 0
3.6 0.5 0
4 0.5 0
4.4 0.5 0
4.8 0.5 0
5.2 0.5 0
5.6 0.5 0
6 0.5 0
6.4 0.5 0
6.8 0.5 0
7.2 0.5 0
7.6 0.5 0
8 0.5 0
8.4 0.5 0
8.8 0.5 0
9.2 0.5 0
9.6 0.5 0
10 0.5 0
10.4 0.5 0
10.8 0.5 0
11.2 0.5 0
11.6 0.5 0
12 0.5 0
12.4 0.5 0
12.8 0.5 0
13.2 0.5 0
13.6 0.5 0
14 0.5 0
14.4 0.5 0
14.8 0.5 0
15.2 0.5 0
15.6 0.5 0
16 0.5 0
16.4 0.5 0
16.8 0.5 0
17.2 0.5 0
17.6 0.5 0
18 0.5 0
18.4 0.5 0
18.8 0.5 0
19.2 0.5 0
19.6 0.5 0
20 0.5 0
20.4 0.5 0
20.8 0.5 0
21.2 0.5 0
21.6 0.5 0
22 0.5 0
22.4 0.5 0
22.8 0.5 0
23.2 0.5 0
23.6 0.5 0
24 0.5 0
24.4 0.5 0
24.8 0.5 0
25.2 0.5 0
25.6 0.5 0
26 0.5 0
26.4 0.5 0
26.8 0.5 0
27.2 0.5 0
27.6 0.5 0
28 0.5 0
28.4 0.5 0
28.8 0.5 0
29.2 0.5 0
29.6 0.5 0
30 0.5 0
30.4 0.5 0
30.8 0.5 0
31.2 0.5 0
31.6 0.5 0
32 0.5 0
32.4 0.5 0
32.8 0.5 0
33.2 0.5 0
33.6 0.5 0
34 0.5 0
34.4 0.5 0
34.8 0.5 0
35.2 0.5 0
35.6 0.5 0
36 0.5 0
36.4 0.5 0
36.8 0.5 0
37.2 0.5 0
37.6 0.5 0
38 0.5 0
38.4 0.5 0
38.8 0.5 0
39.2 0.5 0
39.6 0.5 0
40 0.5 0
40.4 0.5 0
0 0.6 0
0.4 0.6 0
0.8 0.6 0
1.2 0.6 0
1.6 0.6 0
2 0.6 0
2.4 0.6 0
2.8 0.6 0
3.2 0.6 0
3.6 0.6 0
4 0.6 0
4.4 0.6 0
4.8 0.6 0
5.2 0.6 0
5.6 0.6 0
6 0.6 0
6.4 0.6 0
6.8 0.6 0
7.2 0.6 0
7.6 0.6 0
8 0.6 0
8.4 0.6 0
8.8 0.6 0
9.2 0.6 0
9.6 0.6 0
10 0.6 0
10.4 0.6 0
10.8 0.6 0
11.2 0.6 0
11.6 0.6 0
12 0.6 0
12.4 0.6 0
12.8 0.6 0
13.2 0.6 0
13.6 0.6 0
14 0.6 0
14.4 0.6 0
14.8 0.6 0
15.2 0.6 0
15.6 0.6 0
16 0.6 0
16.4 0.6 0
16.8 0.6 0
17.2 0.6 0
17.6 0.6 0
18 0.6 0
18.4 0.6 0
18.8 0.6 0
19.2 0.6 0
19.6 0.6 0
20 0.6 0
20.4 0.6 0
20.8 0.6 0
21.2 0.6 0
21.6 0.6 0
22 0.6 0
22.4 0.6 0
22.8 0.6 0
23.2 0.6 0
23.6 0.6 0
24 0.6 0
24.4 0.6 0
24.8 0.6 0
25.2 0.6 0
25.6 0.6 0
26 0.6 0
26.4 0.6 0
26.8 0.6 0
27.2 0.6 0
27.6 0.6 0
28 0.6 0
28.4 0.6 0
28.8 0.6 0
29.2 0.6 0
29.6 0.6 0
30 0.6 0
30.4 0.6 0
30.8 0.6 0
31.2 0.6 0
31.6 0.6 0
32 0.6 0
32.4 0.6 0
32.8 0.6 0
33.2 0.6 0
33.6 0.6 0
34 0.6 0
34.4 0.6 0
34.8 0.6 0
35.2 0.6 0
35.6 0.6 0
36 0.6 0
36.4 0.6 0
36.8 0.6 0
37.2 0.6 0
37.6 0.6 0
38 0.6 0
38.4 0.6 0
38.8 0.6 0
39.2 0.6 0
39.6 0.6 0
40 0.6 0
40.4 0.6 0
0 0.7 0
0.4 0.7 0
0.8 0.7 0
1.2 0.7 0
1.6 0.7 0
2 0.7 0
2.4 0.7 0
2.8 0.7 0
3.2 0.7 0
3.6 0.7 0
4 0.7 0
4.4 0.7 0
4.8 0.7 0
5.2 0.7 0
5.6 0.7 0
6 0.7 0
6.4 0.7 0
6.8 0.7 0
7.2 0.7 0
7.6 0.7 0
8 0.7 0
8.4 0.7 0
8.8 0.7 0
9.2 0.7 0
9.6 0.7 0
10 0.7 0
10.4 0.7 0
10.8 0.7 0
11.2 0.7 0
11.6 0.7 0
12 0.7 0
12.4 0.7 0
12.8 0.7 0
13.2 0.7 0
13.6 0.7 0
14 0.7 0
14.4 0.7 0
14.8 0.7 0
15.2 0.7 0
15.6 0.7 0
16 0.7 0
16.4 0.7 0
16.8 0.7 0
17.2 0.7 0
17.6 0.7 0
18 0.7 0
18.4 0.7 0
18.8 0.7 0
19.2 0.7 0
19.6 0.7 0
20 0.7 0
20.4 0.7 0
20.8 0.7 0
21.2 0.7 0
21.6 0.7 0
22 0.7 0
22.4 0.7 0
22.8 0.7 0
23.2 0.7 0
23.6 0.7 0
24 0.7 0
24.4 0.7 0
24.8 0.7 0
25.2 0.7 0
25.6 0.7 0
26 0.7 0
26.4 0.7 0
26.8 0.7 0
27.2 0.7 0
27.6 0.7 0
28 0.7 0
28.4 0.7 0
28.8 0.7 0
29.2 0.7 0
29.6 0.7 0
30 0.7 0
30.4 0.7 0
30.8 0.7 0
31.2 0.7 0
31.6 0.7 0
32 0.7 0
32.4 0.7 0
32.8 0.7 0
33.2 0.7 0
33.6 0.7 0
34 0.7 0
34.4 0.7 0
34.8 0.7 0
35.2 0.7 0
35.6 0.7 0
36 0.7 0
36.4 0.7 0
36.8 0.7 0
37.2 0.7 0
37.6 0.7 0
38 0.7 0
38.4 0.7 0
38.8 0.7 0
39.2 0.7 0
39.6 0.7 0
40 0.7 0
40.4 0.7 0
0 0.8 0
0.4 0.8 0
0.8 0.8 0
1.2 0.8 0
1.6 0.8 0
2 0.8 0
2.4 0.8 0
2.8 0.8 0
3.2 0.8 0
3.6 0.8 0
4 0.8 0
4.4 0.8 0
4.8 0.8 0
5.2 0.8 0
5.6 0.8 0
6 0.8 0
6.4 0.8 0
6.8 0.8 0
7.2 0.8 0
7.6 0.8 0
8 0.8 0
8.4 0.8 0
8.8 0.8 0
9.2 0.8 0
9.6 0.8 0
10 0.8 0
10.4 0.8 0
10.8 0.8 0
11.2 0.8 0
11.6 0.8 0
12 0.8 0
12.4 0.8 0
12.8 0.8 0
13.2 0.8 0
13.6 0.8 0
14 0.8 0
14.4 0.8 0
14.8 0.8 0
15.2 0.8 0
15.6 0.8 0
16 0.8 0
16.4 0.8 0
16.8 0.8 0
17.2 0.8 0
17.6 0.8 0
18 0.8 0
18.4 0.8 0
18.8 0.8 0
19.2 0.8 0
19.6 0.8 0
20 0.8 0
20.4 0.8 0
20.8 0.8 0
21.2 0.8 0
21.6 0.8 0
22 0.8 0
22.4 0.8 0
22.8 0.8 0
23.2 0.8 0
23.6 0.8 0
24 0.8 0
24.4 0.8 0
24.8 0.8 0
25.2 0.8 0
25.6 0.8 0
26 0.8 0
26.4 0.8 0
26.8 0.8 0
27.2 0.8 0
27.6 0.8 0
28 0.8 0
28.4 0.8 0
28.8 0.8 0
29.2 0.8 0
29.6 0.8 0
30 0.8 0
30.4 0.8 0
30.8 0.8 0
31.2 0.8 0
31.6 0.8 0
32 0.8 0
32.4 0.8 0
32.8 0.8 0
33.2 0.8 0
33.6 0.8 0
34 0.8 0
34.4 0.8 0
34.8 0.8 0
35.2 0.8 0
35.6 0.8 0
36 0.8 0
36.4 0.8 0
36.8 0.8 0
37.2 0.8 0
37.6 0.8 0
38 0.8 0
38.4 0.8 0
38.8 0.8 0
39.2 0.8 0
39.6 0.8 0
40 0.8 0
40.4 0.8 0
0 0.9 0
0.4 0.9 0
0.8 0.9 0
1.2 0.9 0
1.6 0.9 0
2 0.9 0
2.4 0.9 0
2.8 0.9 0
3.2 0.9 0
3.6 0.9 0
4 0.9 0
4.4 0.9 0
4.8 0.9 0
5.2 0.9 0
5.6 0.9 0
6 0.9 0
6.4 0.9 0
6.8 0.9 0
7.2 0.9 0
7.6 0.9 0
8 0.9 0
8.4 0.9 0
8.8 0.9 0
9.2 0.9 0
9.6 0.9 0
10 0.9 0
10.4 0.9 0
10.8 0.9 0
11.2 0.9 0
11.6 0.9 0
12 0.9 0
12.4 0.9 0
12.8 0.9 0
13.2 0.9 0
13.6 0.9 0
14 0.9 0
14.4 0.9 0
14.8 0.9 0
15.2 0.9 0
15.6 0.9 0
16 0.9 0
16.4 0.9 0
16.8 0.9 0
17.2 0.9 0
17.6 0.9 0
18 0.9 0
18.4 0.9 0
18.8 0.9 0
19.2 0.9 0
19.6 0.9 0
20 0.9 0
20.4 0.9 0
20.8 0.9 0
21.2 0.9 0
21.6 0.9 0
22 0.9 0
22.4 0.9 0
22.8 0.9 0
23.2 0.9 0
23.6 0.9 0
24 0.9 0
24.4 0.9 0
24.8 0.9 0
25.2 0.9 0
25.6 0.9 0
26 0.9 0
26.4 0.9 0
26.8 0.9 0
27.2 0.9 0
27.6 0.9 0
28 0.9 0
28.4 0.9 0
28.8 0.9 0
29.2 0.9 0
29.6 0.9 0
30 0.9 0
30.4 0.9 0
30.8 0.9 0
31.2 0.9 0
31.6 0.9 0
32 0.9 0
32.4 0.9 0
32.8 0.9 0
33.2 0.9 0
33.6 0.9 0
34 0.9 0
34.4 0.9 0
34.8 0.9 0
35.2 0.9 0
35.6 0.9 0
36 0.9 0
36.4 0.9 0
36.8 0.9 0
37.2 0.9 0
37.6 0.9 0
38 0.9 0
38.4 0.9 0
38.8 0.9 0
39.2 0.9 0
39.6 0.9 0
40 0.9 0
40.4 0.9 0
0 1 0
0.4 1 0
0.8 1 0
1.2 1 0
1.6 1 0
2 1 0
2.4 1 0
2.8 1 0
3.2 1 0
3.6 1 0
4 1 0
4.4 1 0
4.8 1 0
5.2 1 0
5.6 1 0
6 1 0
6.4 1 0
6.8 1 0
7.2 1 0
7.6 1 0
8 1 0
8.4 1 0
8.8 1 0
9.2 1 0
9.6 1 0
10 1 0
10.4 1 0
10.8 1 0
11.2 1 0
11.6 1 0
12 1 0
12.4 1 0
12.8 1 0
13.2 1 0
13.6 1 0
14 1 0
14.4 1 0
14.8 1 0
15.2 1 0
15.6 1 0
16 1 0
16.4 1 0
16.8 1 0
17.2 1 0
17.6 1 0
18 1 0
18.4 1 0
18.8 1 0
19.2 1 0
19.6 1 0
20 1 0
20.4 1 0
20.8 1 0
21.2 1 0
21.6 1 0
22 1 0
22.4 1 0
22.8 1 0
23.2 1 0
23.6 1 0
24 1 0
24.4 1 0
24.8 1 0
25.2 1 0
25.6 1 0
26 1 0
26.4 1 0
26.8 1 0
27.2 1 0
27.6 1 0
28 1 0
28.4 1 0
28.8 1 0
29.2 1 0
29.6 1 0
30 1 0
30.4 1 0
30.8 1 0
31.2 1 0
31.6 1 0
32 1 0
32.4 1 0
32.8 1 0
33.2 1 0
33.6 1 0
34 1 0
34.4 1 0
34.8 1 0
35.2 1 0
35.6 1 0
36 1 0
36.4 1 0
36.8 1 0
37.2 1 0
37.6 1 0
38 1 0
38.4 1 0
38.8 1 0
39.2 1 0
39.6 1 0
40 1 0
40.4 1 0
0 1.1 0
0.4 1.1 0
0.8 1.1 0
1.2 1.1 0
1.6 1.1 0
2 1.1 0
2.4 1.1 0
2.8 1.1 0
3.2 1.1 0
3.6 1.1 0
4 1.1 0
4.4 1.1 0
4.8 1.1 0
5.2 1.1 0
5.6 1.1 0
6 1.1 0
6.4 1.1 0
6.8 1.1 0
7.2 1.1 0
7.6 1.1 0
8 1.1 0
8.4 1.1 0
8.8 1.1 0
9.2 1.1 0
9.6 1.1 0
10 1.1 0
10.4 1.1 0
10.8 1.1 0
11.2 1.1 0
11.6 1.1 0
12 1.1 0
12.4 1.1 0
12.8 1.1 0
13.2 1.1 0
13.6 1.1 0
14 1.1 0
14.4 1.1 0
14.8 1.1 0
15.2 1.1 0
15.6 1.1 0
16 1.1 0
16.4 1.1 0
16.8 1.1 0
17.2 1.1 0
17.6 1.1 0
18 1.1 0
18.4 1.1 0
18.8 1.1 0
19.2 1.1 0
19.6 1.1 0
20 1.1 0
20.4 1.1 0
20.8 1.1 0
21.2 1.1 0
21.6 1.1 0
22 1.1 0
22.4 1.1 0
22.8 1.1 0
23.2 1.1 0
23.6 1.1 0
24 1.1 0
24.4 1.1 0
24.8 1.1 0
25.2 1.1 0
25.6 1.1 0
26 1.1 0
26.4 1.1 0
26.8 1.1 0
27.2 1.1 0
27.6 1.1 0
28 1.1 0
28.4 1.1 0
28.8 1.1 0
29.2 1.1 0
29.6 1.1 0
30 1.1 0
30.4 1.1 0
30.8 1.1 0
31.2 1.1 0
31.6 1.1 0
32 1.1 0
32.4 1.1 0
32.8 1.1 0
33.2 1.1 0
33.6 1.1 0
34 1.1 0
34.4 1.1 0
34.8 1.1 0
35.2 1.1 0
35.6 1.1 0
36 1.1 0
36.4 1.1 0
36.8 1.1 0
37.2 1.1 0
37.6 1.1 0
38 1.1 0
38.4 1.1 0
38.8 1.1 0
39.2 1.1 0
39.6 1.1 0
40 1.1 0
40.4 1.1 0

POINT_DATA 1224

SCALARS v double
LOOKUP_TABLE default
0
0
0
0
0
0
0
0
0
0
0
0
0
0
0
0
0
0
0
0
0
0
0
0
0
0
0
0
0
0
0
0
0
0
0
0
0
0
0
0
0
0
0
0
0
0
0
0
0
0
0
0
0
0
0
0
0
0
0
0
0
0
0
0
0
0
0
0
0
0
0
0
0
0
0
0
0
0
0
0
0
0
0
0
0
0
0
0
0
0
0
0
0
0
0
0
0
0
0
0
0
0
0
0.0786982
0.055565
0.0324911
0.0165411
0.00736099
0.00284675
0.000937233
0.000248942
4.41813e-05
-1.08139e-06
-4.4014e-06
-2.06149e-06
-6.71049e-07
-1.47058e-07
1.63695e-08
6.70724e-08
8.02447e-08
8.20347e-08
8.09588e-08
7.91447e-08
7.71024e-08
7.49492e-08
7.27126e-08
7.04009e-08
6.80189e-08
6.55693e-08
6.30548e-08
6.04779e-08
5.78401e-08
5.51443e-08
5.23959e-08
4.9599e-08
4.6754e-08
4.38598e-08
4.09144e-08
3.79156e-08
3.48658e-08
3.17743e-08
2.86523e-08
2.55062e-08
2.23371e-08
1.91462e-08
1.59323e-08
1.26964e-08
9.44159e-09
6.16805e-09
2.87545e-09
-4.10838e-10
-3.65824e-09
-6.91195e-09
-1.01704e-08
-1.34288e-08
-1.66831e-08
-1.99272e-08
-2.31607e-08
-2.63864e-08
-2.96035e-08
-3.28089e-08
-3.60009e-08
-3.91784e-08
-4.23393e-08
-4.5481e-08
-4.86009e-08
-5.16964e-08
-5.47643e-08
-5.78006e-08
-6.08012e-08
-6.37627e-08
-6.66827e-08
-6.95582e-08
-7.2386e-08
-7.51628e-08
-7.78848e-08
-8.05483e-08
-8.31496e-08
-8.5685e-08
-8.81508e-08
-9.05436e-08
-9.28596e-08
-9.50952e-08
-9.72468e-08
-9.93109e-08
-1.01284e-07
-1.03163e-07
-1.04945e-07
-1.06627e-07
-1.08207e-07
-1.09687e-07
-1.11073e-07
-1.12389e-07
-1.13771e-07
-1.15264e-07
-1.21777e-07
-1.20681e-07
-3.23121e-07
-5.0678e-08
-6.10047e-06
-8.79223e-07
-0.000102694
-0.000144508
-0.000144508
0
0.0668216
0.0611064
0.0417773
0.0243086
0.012233
0.00527764
0.00190681
0.000545628
0.0001012
-4.4583e-06
-1.34995e-05
-7.18014e-06
-2.7536e-06
-8.64643e-07
-2.09898e-07
-1.52978e-08
3.57151e-08
4.77013e-08
4.923e-08
4.81309e-08
4.63802e-08
4.44375e-08
4.2404e-08
4.03039e-08
3.81446e-08
3.5929e-08
3.36588e-08
3.13344e-08
2.89548e-08
2.65244e-08
2.4051e-08
2.15407e-08
1.89905e-08
1.63931e-08
1.37379e-08
1.10137e-08
8.21961e-09
5.37166e-09
2.49598e-09
-3.79354e-10
-3.2343e-09
-6.08936e-09
-8.95144e-09
-1.18213e-08
-1.46951e-08
-1.75756e-08
-2.04713e-08
-2.33854e-08
-2.63195e-08
-2.92633e-08
-3.22059e-08
-3.51398e-08
-3.80592e-08
-4.09569e-08
-4.3835e-08
-4.67013e-08
-4.95583e-08
-5.2404e-08
-5.52379e-08
-5.80605e-08
-6.08701e-08
-6.36638e-08
-6.64392e-08
-6.91938e-08
-7.19242e-08
-7.46249e-08
-7.72898e-08
-7.99155e-08
-8.25003e-08
-8.50425e-08
-8.75395e-08
-8.99888e-08
-9.2387e-08
-9.47303e-08
-9.7015e-08
-9.92375e-08
-1.01395e-07
-1.03483e-07
-1.055e-07
-1.07441e-07
-1.09305e-07
-1.11087e-07
-1.12785e-07
-1.14396e-07
-1.15918e-07
-1.17349e-07
-1.1869e-07
-1.19945e-07
-1.21133e-07
-1.22298e-07
-1.2372e-07
-1.25191e-07
-1.3734e-07
-1.21635e-07
-5.35037e-07
3.6386e-07
-1.18696e-05
7.41083e-06
-0.000247565
-0.000321693
-0.000321693
0
0.0434325
0.0453558
0.0337067
0.0208559
0.0110139
0.00493256
0.00182619
0.000522004
8.70387e-05
-1.43171e-05
-1.98928e-05
-1.06766e-05
-4.33006e-06
-1.47364e-06
-4.19881e-07
-8.23891e-08
1.28336e-08
3.67914e-08
4.14855e-08
4.12707e-08
3.98662e-08
3.81584e-08
3.6345e-08
3.4471e-08
3.25479e-08
3.05789e-08
2.85648e-08
2.6504e-08
2.43952e-08
2.22422e-08
2.00543e-08
1.78389e-08
1.55927e-08
1.33034e-08
1.09543e-08
8.52411e-09
6.00292e-09
3.40818e-09
7.784e-10
-1.84636e-09
-4.45852e-09
-7.05722e-09
-9.64831e-09
-1.22342e-08
-1.48126e-08
-1.73913e-08
-1.99858e-08
-2.26027e-08
-2.52389e-08
-2.78804e-08
-3.05143e-08
-3.31345e-08
-3.57372e-08
-3.83165e-08
-4.08737e-08
-4.34153e-08
-4.59443e-08
-4.84597e-08
-5.09627e-08
-5.34547e-08
-5.59341e-08
-5.8398e-08
-6.08445e-08
-6.32722e-08
-6.5678e-08
-6.80556e-08
-7.03981e-08
-7.27016e-08
-7.49651e-08
-7.71874e-08
-7.93669e-08
-8.15021e-08
-8.35902e-08
-8.56275e-08
-8.761e-08
-8.95342e-08
-9.1397e-08
-9.31958e-08
-9.49278e-08
-9.65903e-08
-9.81806e-08
-9.9696e-08
-1.01134e-07
-1.02493e-07
-1.0377e-07
-1.04965e-07
-1.0608e-07
-1.07122e-07
-1.08116e-07
-1.09114e-07
-1.10461e-07
-1.11667e-07
-1.25315e-07
-9.9143e-08
-5.47277e-07
5.96828e-07
-1.21219e-05
1.0579e-05
-0.000260974
-0.000337739
-0.000337739
0
0.0210344
0.0232975
0.0180403
0.0114942
0.00620299
0.00282343
0.00105602
0.000301015
4.69149e-05
-1.1678e-05
-1.39689e-05
-7.55127e-06
-3.11851e-06
-1.06953e-06
-2.90733e-07
-3.37216e-08
4.10352e-08
5.9817e-08
6.31453e-08
6.25599e-08
6.10262e-08
5.92428e-08
5.73645e-08
5.54264e-08
5.34385e-08
5.14035e-08
4.93219e-08
4.7192e-08
4.50126e-08
4.27872e-08
4.05252e-08
3.82358e-08
3.59169e-08
3.35547e-08
3.11286e-08
2.86081e-08
2.59712e-08
2.32324e-08
2.04388e-08
1.76355e-08
1.48481e-08
1.20855e-08
9.34369e-09
6.61927e-09
3.91178e-09
1.20874e-09
-1.50804e-09
-4.24797e-09
-7.005e-09
-9.76134e-09
-1.25065e-08
-1.52415e-08
-1.79685e-08
-2.06846e-08
-2.33858e-08
-2.60693e-08
-2.87325e-08
-3.13739e-08
-3.39953e-08
-3.65985e-08
-3.9181e-08
-4.17398e-08
-4.42748e-08
-4.67863e-08
-4.92725e-08
-5.17273e-08
-5.41436e-08
-5.65178e-08
-5.88488e-08
-6.1135e-08
-6.33754e-08
-6.55689e-08
-6.77131e-08
-6.98041e-08
-7.18372e-08
-7.38085e-08
-7.57147e-08
-7.75531e-08
-7.93209e-08
-8.10156e-08
-8.26345e-08
-8.41749e-08
-8.56342e-08
-8.70103e-08
-8.83014e-08
-8.95069e-08
-9.0629e-08
-9.16763e-08
-9.26752e-08
-9.36822e-08
-9.4988e-08
-9.62544e-08
-1.06132e-07
-8.78742e-08
-3.64968e-07
3.77032e-07
-7.26845e-06
6.4287e-06
-0.000155948
-0.000203922
-0.000203922
0
1.71233e-07
2.48704e-07
1.46464e-07
-9.09428e-09
-7.06862e-08
-3.66568e-08
2.86372e-08
7.43566e-08
7.9484e-08
7.11219e-08
7.72916e-08
8.96462e-08
9.97456e-08
1.05909e-07
1.08208e-07
1.07213e-07
1.04751e-07
1.02128e-07
9.9837e-08
9.77468e-08
9.56985e-08
9.36173e-08
9.14801e-08
8.92841e-08
8.70315e-08
8.47239e-08
8.2362e-08
7.9945e-08
7.74719e-08
7.49466e-08
7.23775e-08
6.97763e-08
6.71429e-08
6.44636e-08
6.1716e-08
5.88608e-08
5.58627e-08
5.27318e-08
4.95248e-08
4.63021e-08
4.31002e-08
3.99315e-08
3.6794e-08
3.36839e-08
3.05977e-08
2.75182e-08
2.44198e-08
2.12931e-08
1.81519e-08
1.50181e-08
1.18969e-08
8.77708e-09
5.64757e-09
2.50802e-09
-6.29906e-10
-3.74997e-09
-6.84005e-09
-9.89664e-09
-1.2922e-08
-1.5917e-08
-1.88782e-08
-2.18025e-08
-2.46915e-08
-2.75482e-08
-3.03726e-08
-3.31589e-08
-3.5901e-08
-3.85953e-08
-4.12408e-08
-4.38349e-08
-4.63766e-08
-4.88652e-08
-5.12983e-08
-5.36714e-08
-5.59791e-08
-5.82165e-08
-6.03801e-08
-6.24668e-08
-6.44737e-08
-6.6398e-08
-6.82366e-08
-6.99867e-08
-7.16453e-08
-7.32099e-08
-7.46784e-08
-7.60501e-08
-7.73268e-08
-7.85169e-08
-7.96455e-08
-8.077e-08
-8.20621e-08
-8.36117e-08
-8.68357e-08
-8.79034e-08
-8.67411e-08
-7.84698e-08
-6.60793e-08
-5.6446e-08
-5.16667e-08
-8.59275e-08
-8.59275e-08
0
-0.021034
-0.023297
-0.01804
-0.0114942
-0.00620313
-0.0028235
-0.00105595
-0.000300856
-4.67451e-05
1.18278e-05
1.41283e-05
7.73351e-06
3.31951e-06
1.28201e-06
5.07353e-07
2.4784e-07
1.67971e-07
1.44109e-07
1.36312e-07
1.32752e-07
1.30189e-07
1.27796e-07
1.25384e-07
1.22913e-07
1.20378e-07
1.1778e-07
1.15122e-07
1.12401e-07
1.0962e-07
1.0678e-07
1.0389e-07
1.00964e-07
9.80035e-08
9.49969e-08
9.19227e-08
8.87352e-08
8.53867e-08
8.18828e-08
7.82878e-08
7.46734e-08
7.10825e-08
6.75294e-08
6.40131e-08
6.05294e-08
5.70728e-08
5.36227e-08
5.0151e-08
4.66486e-08
4.31349e-08
3.96359e-08
3.61506e-08
3.2658e-08
2.91393e-08
2.55911e-08
2.20318e-08
1.84903e-08
1.49869e-08
1.15271e-08
8.10813e-09
4.72997e-09
1.39727e-09
-1.88963e-09
-5.13278e-09
-8.33568e-09
-1.14994e-08
-1.4619e-08
-1.76889e-08
-2.0706e-08
-2.36692e-08
-2.65746e-08
-2.9421e-08
-3.2208e-08
-3.4933e-08
-3.7591e-08
-4.0176e-08
-4.26825e-08
-4.51064e-08
-4.74445e-08
-4.96937e-08
-5.18507e-08
-5.39123e-08
-5.58751e-08
-5.77359e-08
-5.94919e-08
-6.11406e-08
-6.26808e-08
-6.41138e-08
-6.54471e-08
-6.6702e-08
-6.79329e-08
-6.91878e-08
-7.09868e-08
-6.7454e-08
-8.91349e-08
1.91173e-07
-5.36407e-07
7.13375e-06
-6.54427e-06
0.000155841
0.000203749
0.000203749
0
-0.0434322
-0.0453553
-0.0337064
-0.0208559
-0.0110141
-0.0049326
-0.0018261
-0.000521817
-8.68389e-05
1.44896e-05
2.00664e-05
1.08674e-05
4.53526e-06
1.68772e-06
6.36998e-07
2.96182e-07
1.95132e-07
1.66347e-07
1.57476e-07
1.53639e-07
1.50937e-07
1.48426e-07
1.45894e-07
1.43303e-07
1.40647e-07
1.37926e-07
1.35144e-07
1.323e-07
1.29395e-07
1.26433e-07
1.23421e-07
1.20373e-07
1.17294e-07
1.14174e-07
1.11e-07
1.07724e-07
1.04295e-07
1.00713e-07
9.70436e-08
9.33565e-08
8.96926e-08
8.60637e-08
8.24684e-08
7.89031e-08
7.5362e-08
7.18254e-08
6.82666e-08
6.46784e-08
6.10833e-08
5.75079e-08
5.39473e-08
5.03758e-08
4.6772e-08
4.31309e-08
3.94733e-08
3.58328e-08
3.22323e-08
2.86766e-08
2.51627e-08
2.16915e-08
1.82688e-08
1.48985e-08
1.15772e-08
8.29897e-09
5.06293e-09
1.87333e-09
-1.27329e-09
-4.3733e-09
-7.41901e-09
-1.04049e-08
-1.3329e-08
-1.61911e-08
-1.89885e-08
-2.17161e-08
-2.43679e-08
-2.69383e-08
-2.94232e-08
-3.18191e-08
-3.41229e-08
-3.63313e-08
-3.84409e-08
-4.04481e-08
-4.23498e-08
-4.41428e-08
-4.58246e-08
-4.73936e-08
-4.88503e-08
-5.02007e-08
-5.14612e-08
-5.26775e-08
-5.38092e-08
-5.56363e-08
-4.77085e-08
-8.09958e-08
3.71633e-07
-7.63721e-07
1.19786e-05
-1.07045e-05
0.000260856
0.000337565
0.000337565
0
-0.0668212
-0.0611059
-0.0417771
-0.0243085
-0.012233
-0.0052776
-0.00190667
-0.000545406
-0.00010096
4.67122e-06
1.36969e-05
7.38474e-06
2.96507e-06
1.08005e-06
4.26446e-07
2.27097e-07
1.71018e-07
1.55308e-07
1.5e-07
1.47136e-07
1.44759e-07
1.4243e-07
1.40056e-07
1.37625e-07
1.35135e-07
1.32588e-07
1.29988e-07
1.27334e-07
1.2463e-07
1.21878e-07
1.19082e-07
1.16257e-07
1.13408e-07
1.10531e-07
1.07623e-07
1.04653e-07
1.01577e-07
9.83923e-08
9.51461e-08
9.18876e-08
8.86422e-08
8.54154e-08
8.22062e-08
7.90127e-08
7.58321e-08
7.26515e-08
6.9452e-08
6.62306e-08
6.30062e-08
5.98005e-08
5.66082e-08
5.34087e-08
5.01862e-08
4.69362e-08
4.36746e-08
4.04275e-08
3.72116e-08
3.40293e-08
3.08775e-08
2.77585e-08
2.46771e-08
2.16381e-08
1.86393e-08
1.56772e-08
1.27519e-08
9.86978e-09
7.03297e-09
4.24311e-09
1.50113e-09
-1.20374e-09
-3.86248e-09
-6.46372e-09
-9.00455e-09
-1.14806e-08
-1.38867e-08
-1.62181e-08
-1.84711e-08
-2.06425e-08
-2.27292e-08
-2.47281e-08
-2.66359e-08
-2.84495e-08
-3.01659e-08
-3.17821e-08
-3.32956e-08
-3.47047e-08
-3.60092e-08
-3.72126e-08
-3.83253e-08
-3.9379e-08
-4.0298e-08
-4.18644e-08
-3.38631e-08
-6.23812e-08
3.52992e-07
-5.40586e-07
1.17114e-05
-7.55535e-06
0.000247423
0.000321517
0.000321517
0
-0.0786979
-0.0555646
-0.0324909
-0.016541
-0.00736087
-0.00284659
-0.000937023
-0.000248702
-4.39175e-05
1.34104e-06
4.62558e-06
2.28155e-06
8.89866e-07
3.6184e-07
1.92881e-07
1.43358e-07
1.28969e-07
1.24024e-07
1.21423e-07
1.19329e-07
1.17297e-07
1.15227e-07
1.13103e-07
1.10922e-07
1.08688e-07
1.06401e-07
1.04065e-07
1.01682e-07
9.92539e-08
9.67836e-08
9.42743e-08
9.17331e-08
8.91674e-08
8.65774e-08
8.39701e-08
8.13387e-08
7.86634e-08
7.59392e-08
7.31818e-08
7.04077e-08
6.76242e-08
6.48335e-08
6.20366e-08
5.92351e-08
5.64298e-08
5.36182e-08
5.07938e-08
4.79572e-08
4.51174e-08
4.22853e-08
3.94597e-08
3.66335e-08
3.38019e-08
3.09627e-08
2.8122e-08
2.52915e-08
2.24768e-08
1.96805e-08
1.69008e-08
1.41416e-08
1.14047e-08
8.6948e-09
6.0134e-09
3.35933e-09
7.29901e-10
-1.90544e-09
-4.51676e-09
-7.09018e-09
-9.62333e-09
-1.21116e-08
-1.45522e-08
-1.69428e-08
-1.92807e-08
-2.15624e-08
-2.3784e-08
-2.5942e-08
-2.8033e-08
-3.00539e-08
-3.20017e-08
-3.38732e-08
-3.56654e-08
-3.73753e-08
-3.89999e-08
-4.05365e-08
-4.19826e-08
-4.33359e-08
-4.4595e-08
-4.57601e-08
-4.68343e-08
-4.78319e-08
-4.86956e-08
-4.99216e-08
-4.56475e-08
-6.36945e-08
1.37179e-07
-1.29345e-07
5.92899e-06
7.14344e-07
0.000102528
0.000144332
0.000144332
0
0
0
0
0
0
0
0
0
0
0
0
0
0
0
0
0
0
0
0
0
0
0
0
0
0
0
0
0
0
0
0
0
0
0
0
0
0
0
0
0
0
0
0
0
0
0
0
0
0
0
0
0
0
0
0
0
0
0
0
0
0
0
0
0
0
0
0
0
0
0
0
0
0
0
0
0
0
0
0
0
0
0
0
0
0
0
0
0
0
0
0
0
0
0
0
0
0
0
0
0
0
0
0
0
0
0
0
0
0
0
0
0
0
0
0
0
0
0
0
0
0
0
0
0
0
0
0
0
0
0
0
0
0
0
0
0
0
0
0
0
0
0
0
0
0
0
0
0
0
0
0
0
0
0
0
0
0
0
0
0
0
0
0
0
0
0
0
0
0
0
0
0
0
0
0
0
0
0
0
0
0
0
0
0
0
0
0
0
0
0
0
0
0
0
0
0
0
0
0
0
0
0
0
