# vtk DataFile Version 2.0
FlowField
ASCII
DATASET STRUCTURED_GRID
DIMENSIONS 101 11 1 
POINTS 1111 double
0 0 0
0.3 0 0
0.6 0 0
0.9 0 0
1.2 0 0
1.5 0 0
1.8 0 0
2.1 0 0
2.4 0 0
2.7 0 0
3 0 0
3.3 0 0
3.6 0 0
3.9 0 0
4.2 0 0
4.5 0 0
4.8 0 0
5.1 0 0
5.4 0 0
5.7 0 0
6 0 0
6.3 0 0
6.6 0 0
6.9 0 0
7.2 0 0
7.5 0 0
7.8 0 0
8.1 0 0
8.4 0 0
8.7 0 0
9 0 0
9.3 0 0
9.6 0 0
9.9 0 0
10.2 0 0
10.5 0 0
10.8 0 0
11.1 0 0
11.4 0 0
11.7 0 0
12 0 0
12.3 0 0
12.6 0 0
12.9 0 0
13.2 0 0
13.5 0 0
13.8 0 0
14.1 0 0
14.4 0 0
14.7 0 0
15 0 0
15.3 0 0
15.6 0 0
15.9 0 0
16.2 0 0
16.5 0 0
16.8 0 0
17.1 0 0
17.4 0 0
17.7 0 0
18 0 0
18.3 0 0
18.6 0 0
18.9 0 0
19.2 0 0
19.5 0 0
19.8 0 0
20.1 0 0
20.4 0 0
20.7 0 0
21 0 0
21.3 0 0
21.6 0 0
21.9 0 0
22.2 0 0
22.5 0 0
22.8 0 0
23.1 0 0
23.4 0 0
23.7 0 0
24 0 0
24.3 0 0
24.6 0 0
24.9 0 0
25.2 0 0
25.5 0 0
25.8 0 0
26.1 0 0
26.4 0 0
26.7 0 0
27 0 0
27.3 0 0
27.6 0 0
27.9 0 0
28.2 0 0
28.5 0 0
28.8 0 0
29.1 0 0
29.4 0 0
29.7 0 0
30 0 0
0 0.1 0
0.3 0.1 0
0.6 0.1 0
0.9 0.1 0
1.2 0.1 0
1.5 0.1 0
1.8 0.1 0
2.1 0.1 0
2.4 0.1 0
2.7 0.1 0
3 0.1 0
3.3 0.1 0
3.6 0.1 0
3.9 0.1 0
4.2 0.1 0
4.5 0.1 0
4.8 0.1 0
5.1 0.1 0
5.4 0.1 0
5.7 0.1 0
6 0.1 0
6.3 0.1 0
6.6 0.1 0
6.9 0.1 0
7.2 0.1 0
7.5 0.1 0
7.8 0.1 0
8.1 0.1 0
8.4 0.1 0
8.7 0.1 0
9 0.1 0
9.3 0.1 0
9.6 0.1 0
9.9 0.1 0
10.2 0.1 0
10.5 0.1 0
10.8 0.1 0
11.1 0.1 0
11.4 0.1 0
11.7 0.1 0
12 0.1 0
12.3 0.1 0
12.6 0.1 0
12.9 0.1 0
13.2 0.1 0
13.5 0.1 0
13.8 0.1 0
14.1 0.1 0
14.4 0.1 0
14.7 0.1 0
15 0.1 0
15.3 0.1 0
15.6 0.1 0
15.9 0.1 0
16.2 0.1 0
16.5 0.1 0
16.8 0.1 0
17.1 0.1 0
17.4 0.1 0
17.7 0.1 0
18 0.1 0
18.3 0.1 0
18.6 0.1 0
18.9 0.1 0
19.2 0.1 0
19.5 0.1 0
19.8 0.1 0
20.1 0.1 0
20.4 0.1 0
20.7 0.1 0
21 0.1 0
21.3 0.1 0
21.6 0.1 0
21.9 0.1 0
22.2 0.1 0
22.5 0.1 0
22.8 0.1 0
23.1 0.1 0
23.4 0.1 0
23.7 0.1 0
24 0.1 0
24.3 0.1 0
24.6 0.1 0
24.9 0.1 0
25.2 0.1 0
25.5 0.1 0
25.8 0.1 0
26.1 0.1 0
26.4 0.1 0
26.7 0.1 0
27 0.1 0
27.3 0.1 0
27.6 0.1 0
27.9 0.1 0
28.2 0.1 0
28.5 0.1 0
28.8 0.1 0
29.1 0.1 0
29.4 0.1 0
29.7 0.1 0
30 0.1 0
0 0.2 0
0.3 0.2 0
0.6 0.2 0
0.9 0.2 0
1.2 0.2 0
1.5 0.2 0
1.8 0.2 0
2.1 0.2 0
2.4 0.2 0
2.7 0.2 0
3 0.2 0
3.3 0.2 0
3.6 0.2 0
3.9 0.2 0
4.2 0.2 0
4.5 0.2 0
4.8 0.2 0
5.1 0.2 0
5.4 0.2 0
5.7 0.2 0
6 0.2 0
6.3 0.2 0
6.6 0.2 0
6.9 0.2 0
7.2 0.2 0
7.5 0.2 0
7.8 0.2 0
8.1 0.2 0
8.4 0.2 0
8.7 0.2 0
9 0.2 0
9.3 0.2 0
9.6 0.2 0
9.9 0.2 0
10.2 0.2 0
10.5 0.2 0
10.8 0.2 0
11.1 0.2 0
11.4 0.2 0
11.7 0.2 0
12 0.2 0
12.3 0.2 0
12.6 0.2 0
12.9 0.2 0
13.2 0.2 0
13.5 0.2 0
13.8 0.2 0
14.1 0.2 0
14.4 0.2 0
14.7 0.2 0
15 0.2 0
15.3 0.2 0
15.6 0.2 0
15.9 0.2 0
16.2 0.2 0
16.5 0.2 0
16.8 0.2 0
17.1 0.2 0
17.4 0.2 0
17.7 0.2 0
18 0.2 0
18.3 0.2 0
18.6 0.2 0
18.9 0.2 0
19.2 0.2 0
19.5 0.2 0
19.8 0.2 0
20.1 0.2 0
20.4 0.2 0
20.7 0.2 0
21 0.2 0
21.3 0.2 0
21.6 0.2 0
21.9 0.2 0
22.2 0.2 0
22.5 0.2 0
22.8 0.2 0
23.1 0.2 0
23.4 0.2 0
23.7 0.2 0
24 0.2 0
24.3 0.2 0
24.6 0.2 0
24.9 0.2 0
25.2 0.2 0
25.5 0.2 0
25.8 0.2 0
26.1 0.2 0
26.4 0.2 0
26.7 0.2 0
27 0.2 0
27.3 0.2 0
27.6 0.2 0
27.9 0.2 0
28.2 0.2 0
28.5 0.2 0
28.8 0.2 0
29.1 0.2 0
29.4 0.2 0
29.7 0.2 0
30 0.2 0
0 0.3 0
0.3 0.3 0
0.6 0.3 0
0.9 0.3 0
1.2 0.3 0
1.5 0.3 0
1.8 0.3 0
2.1 0.3 0
2.4 0.3 0
2.7 0.3 0
3 0.3 0
3.3 0.3 0
3.6 0.3 0
3.9 0.3 0
4.2 0.3 0
4.5 0.3 0
4.8 0.3 0
5.1 0.3 0
5.4 0.3 0
5.7 0.3 0
6 0.3 0
6.3 0.3 0
6.6 0.3 0
6.9 0.3 0
7.2 0.3 0
7.5 0.3 0
7.8 0.3 0
8.1 0.3 0
8.4 0.3 0
8.7 0.3 0
9 0.3 0
9.3 0.3 0
9.6 0.3 0
9.9 0.3 0
10.2 0.3 0
10.5 0.3 0
10.8 0.3 0
11.1 0.3 0
11.4 0.3 0
11.7 0.3 0
12 0.3 0
12.3 0.3 0
12.6 0.3 0
12.9 0.3 0
13.2 0.3 0
13.5 0.3 0
13.8 0.3 0
14.1 0.3 0
14.4 0.3 0
14.7 0.3 0
15 0.3 0
15.3 0.3 0
15.6 0.3 0
15.9 0.3 0
16.2 0.3 0
16.5 0.3 0
16.8 0.3 0
17.1 0.3 0
17.4 0.3 0
17.7 0.3 0
18 0.3 0
18.3 0.3 0
18.6 0.3 0
18.9 0.3 0
19.2 0.3 0
19.5 0.3 0
19.8 0.3 0
20.1 0.3 0
20.4 0.3 0
20.7 0.3 0
21 0.3 0
21.3 0.3 0
21.6 0.3 0
21.9 0.3 0
22.2 0.3 0
22.5 0.3 0
22.8 0.3 0
23.1 0.3 0
23.4 0.3 0
23.7 0.3 0
24 0.3 0
24.3 0.3 0
24.6 0.3 0
24.9 0.3 0
25.2 0.3 0
25.5 0.3 0
25.8 0.3 0
26.1 0.3 0
26.4 0.3 0
26.7 0.3 0
27 0.3 0
27.3 0.3 0
27.6 0.3 0
27.9 0.3 0
28.2 0.3 0
28.5 0.3 0
28.8 0.3 0
29.1 0.3 0
29.4 0.3 0
29.7 0.3 0
30 0.3 0
0 0.4 0
0.3 0.4 0
0.6 0.4 0
0.9 0.4 0
1.2 0.4 0
1.5 0.4 0
1.8 0.4 0
2.1 0.4 0
2.4 0.4 0
2.7 0.4 0
3 0.4 0
3.3 0.4 0
3.6 0.4 0
3.9 0.4 0
4.2 0.4 0
4.5 0.4 0
4.8 0.4 0
5.1 0.4 0
5.4 0.4 0
5.7 0.4 0
6 0.4 0
6.3 0.4 0
6.6 0.4 0
6.9 0.4 0
7.2 0.4 0
7.5 0.4 0
7.8 0.4 0
8.1 0.4 0
8.4 0.4 0
8.7 0.4 0
9 0.4 0
9.3 0.4 0
9.6 0.4 0
9.9 0.4 0
10.2 0.4 0
10.5 0.4 0
10.8 0.4 0
11.1 0.4 0
11.4 0.4 0
11.7 0.4 0
12 0.4 0
12.3 0.4 0
12.6 0.4 0
12.9 0.4 0
13.2 0.4 0
13.5 0.4 0
13.8 0.4 0
14.1 0.4 0
14.4 0.4 0
14.7 0.4 0
15 0.4 0
15.3 0.4 0
15.6 0.4 0
15.9 0.4 0
16.2 0.4 0
16.5 0.4 0
16.8 0.4 0
17.1 0.4 0
17.4 0.4 0
17.7 0.4 0
18 0.4 0
18.3 0.4 0
18.6 0.4 0
18.9 0.4 0
19.2 0.4 0
19.5 0.4 0
19.8 0.4 0
20.1 0.4 0
20.4 0.4 0
20.7 0.4 0
21 0.4 0
21.3 0.4 0
21.6 0.4 0
21.9 0.4 0
22.2 0.4 0
22.5 0.4 0
22.8 0.4 0
23.1 0.4 0
23.4 0.4 0
23.7 0.4 0
24 0.4 0
24.3 0.4 0
24.6 0.4 0
24.9 0.4 0
25.2 0.4 0
25.5 0.4 0
25.8 0.4 0
26.1 0.4 0
26.4 0.4 0
26.7 0.4 0
27 0.4 0
27.3 0.4 0
27.6 0.4 0
27.9 0.4 0
28.2 0.4 0
28.5 0.4 0
28.8 0.4 0
29.1 0.4 0
29.4 0.4 0
29.7 0.4 0
30 0.4 0
0 0.5 0
0.3 0.5 0
0.6 0.5 0
0.9 0.5 0
1.2 0.5 0
1.5 0.5 0
1.8 0.5 0
2.1 0.5 0
2.4 0.5 0
2.7 0.5 0
3 0.5 0
3.3 0.5 0
3.6 0.5 0
3.9 0.5 0
4.2 0.5 0
4.5 0.5 0
4.8 0.5 0
5.1 0.5 0
5.4 0.5 0
5.7 0.5 0
6 0.5 0
6.3 0.5 0
6.6 0.5 0
6.9 0.5 0
7.2 0.5 0
7.5 0.5 0
7.8 0.5 0
8.1 0.5 0
8.4 0.5 0
8.7 0.5 0
9 0.5 0
9.3 0.5 0
9.6 0.5 0
9.9 0.5 0
10.2 0.5 0
10.5 0.5 0
10.8 0.5 0
11.1 0.5 0
11.4 0.5 0
11.7 0.5 0
12 0.5 0
12.3 0.5 0
12.6 0.5 0
12.9 0.5 0
13.2 0.5 0
13.5 0.5 0
13.8 0.5 0
14.1 0.5 0
14.4 0.5 0
14.7 0.5 0
15 0.5 0
15.3 0.5 0
15.6 0.5 0
15.9 0.5 0
16.2 0.5 0
16.5 0.5 0
16.8 0.5 0
17.1 0.5 0
17.4 0.5 0
17.7 0.5 0
18 0.5 0
18.3 0.5 0
18.6 0.5 0
18.9 0.5 0
19.2 0.5 0
19.5 0.5 0
19.8 0.5 0
20.1 0.5 0
20.4 0.5 0
20.7 0.5 0
21 0.5 0
21.3 0.5 0
21.6 0.5 0
21.9 0.5 0
22.2 0.5 0
22.5 0.5 0
22.8 0.5 0
23.1 0.5 0
23.4 0.5 0
23.7 0.5 0
24 0.5 0
24.3 0.5 0
24.6 0.5 0
24.9 0.5 0
25.2 0.5 0
25.5 0.5 0
25.8 0.5 0
26.1 0.5 0
26.4 0.5 0
26.7 0.5 0
27 0.5 0
27.3 0.5 0
27.6 0.5 0
27.9 0.5 0
28.2 0.5 0
28.5 0.5 0
28.8 0.5 0
29.1 0.5 0
29.4 0.5 0
29.7 0.5 0
30 0.5 0
0 0.6 0
0.3 0.6 0
0.6 0.6 0
0.9 0.6 0
1.2 0.6 0
1.5 0.6 0
1.8 0.6 0
2.1 0.6 0
2.4 0.6 0
2.7 0.6 0
3 0.6 0
3.3 0.6 0
3.6 0.6 0
3.9 0.6 0
4.2 0.6 0
4.5 0.6 0
4.8 0.6 0
5.1 0.6 0
5.4 0.6 0
5.7 0.6 0
6 0.6 0
6.3 0.6 0
6.6 0.6 0
6.9 0.6 0
7.2 0.6 0
7.5 0.6 0
7.8 0.6 0
8.1 0.6 0
8.4 0.6 0
8.7 0.6 0
9 0.6 0
9.3 0.6 0
9.6 0.6 0
9.9 0.6 0
10.2 0.6 0
10.5 0.6 0
10.8 0.6 0
11.1 0.6 0
11.4 0.6 0
11.7 0.6 0
12 0.6 0
12.3 0.6 0
12.6 0.6 0
12.9 0.6 0
13.2 0.6 0
13.5 0.6 0
13.8 0.6 0
14.1 0.6 0
14.4 0.6 0
14.7 0.6 0
15 0.6 0
15.3 0.6 0
15.6 0.6 0
15.9 0.6 0
16.2 0.6 0
16.5 0.6 0
16.8 0.6 0
17.1 0.6 0
17.4 0.6 0
17.7 0.6 0
18 0.6 0
18.3 0.6 0
18.6 0.6 0
18.9 0.6 0
19.2 0.6 0
19.5 0.6 0
19.8 0.6 0
20.1 0.6 0
20.4 0.6 0
20.7 0.6 0
21 0.6 0
21.3 0.6 0
21.6 0.6 0
21.9 0.6 0
22.2 0.6 0
22.5 0.6 0
22.8 0.6 0
23.1 0.6 0
23.4 0.6 0
23.7 0.6 0
24 0.6 0
24.3 0.6 0
24.6 0.6 0
24.9 0.6 0
25.2 0.6 0
25.5 0.6 0
25.8 0.6 0
26.1 0.6 0
26.4 0.6 0
26.7 0.6 0
27 0.6 0
27.3 0.6 0
27.6 0.6 0
27.9 0.6 0
28.2 0.6 0
28.5 0.6 0
28.8 0.6 0
29.1 0.6 0
29.4 0.6 0
29.7 0.6 0
30 0.6 0
0 0.7 0
0.3 0.7 0
0.6 0.7 0
0.9 0.7 0
1.2 0.7 0
1.5 0.7 0
1.8 0.7 0
2.1 0.7 0
2.4 0.7 0
2.7 0.7 0
3 0.7 0
3.3 0.7 0
3.6 0.7 0
3.9 0.7 0
4.2 0.7 0
4.5 0.7 0
4.8 0.7 0
5.1 0.7 0
5.4 0.7 0
5.7 0.7 0
6 0.7 0
6.3 0.7 0
6.6 0.7 0
6.9 0.7 0
7.2 0.7 0
7.5 0.7 0
7.8 0.7 0
8.1 0.7 0
8.4 0.7 0
8.7 0.7 0
9 0.7 0
9.3 0.7 0
9.6 0.7 0
9.9 0.7 0
10.2 0.7 0
10.5 0.7 0
10.8 0.7 0
11.1 0.7 0
11.4 0.7 0
11.7 0.7 0
12 0.7 0
12.3 0.7 0
12.6 0.7 0
12.9 0.7 0
13.2 0.7 0
13.5 0.7 0
13.8 0.7 0
14.1 0.7 0
14.4 0.7 0
14.7 0.7 0
15 0.7 0
15.3 0.7 0
15.6 0.7 0
15.9 0.7 0
16.2 0.7 0
16.5 0.7 0
16.8 0.7 0
17.1 0.7 0
17.4 0.7 0
17.7 0.7 0
18 0.7 0
18.3 0.7 0
18.6 0.7 0
18.9 0.7 0
19.2 0.7 0
19.5 0.7 0
19.8 0.7 0
20.1 0.7 0
20.4 0.7 0
20.7 0.7 0
21 0.7 0
21.3 0.7 0
21.6 0.7 0
21.9 0.7 0
22.2 0.7 0
22.5 0.7 0
22.8 0.7 0
23.1 0.7 0
23.4 0.7 0
23.7 0.7 0
24 0.7 0
24.3 0.7 0
24.6 0.7 0
24.9 0.7 0
25.2 0.7 0
25.5 0.7 0
25.8 0.7 0
26.1 0.7 0
26.4 0.7 0
26.7 0.7 0
27 0.7 0
27.3 0.7 0
27.6 0.7 0
27.9 0.7 0
28.2 0.7 0
28.5 0.7 0
28.8 0.7 0
29.1 0.7 0
29.4 0.7 0
29.7 0.7 0
30 0.7 0
0 0.8 0
0.3 0.8 0
0.6 0.8 0
0.9 0.8 0
1.2 0.8 0
1.5 0.8 0
1.8 0.8 0
2.1 0.8 0
2.4 0.8 0
2.7 0.8 0
3 0.8 0
3.3 0.8 0
3.6 0.8 0
3.9 0.8 0
4.2 0.8 0
4.5 0.8 0
4.8 0.8 0
5.1 0.8 0
5.4 0.8 0
5.7 0.8 0
6 0.8 0
6.3 0.8 0
6.6 0.8 0
6.9 0.8 0
7.2 0.8 0
7.5 0.8 0
7.8 0.8 0
8.1 0.8 0
8.4 0.8 0
8.7 0.8 0
9 0.8 0
9.3 0.8 0
9.6 0.8 0
9.9 0.8 0
10.2 0.8 0
10.5 0.8 0
10.8 0.8 0
11.1 0.8 0
11.4 0.8 0
11.7 0.8 0
12 0.8 0
12.3 0.8 0
12.6 0.8 0
12.9 0.8 0
13.2 0.8 0
13.5 0.8 0
13.8 0.8 0
14.1 0.8 0
14.4 0.8 0
14.7 0.8 0
15 0.8 0
15.3 0.8 0
15.6 0.8 0
15.9 0.8 0
16.2 0.8 0
16.5 0.8 0
16.8 0.8 0
17.1 0.8 0
17.4 0.8 0
17.7 0.8 0
18 0.8 0
18.3 0.8 0
18.6 0.8 0
18.9 0.8 0
19.2 0.8 0
19.5 0.8 0
19.8 0.8 0
20.1 0.8 0
20.4 0.8 0
20.7 0.8 0
21 0.8 0
21.3 0.8 0
21.6 0.8 0
21.9 0.8 0
22.2 0.8 0
22.5 0.8 0
22.8 0.8 0
23.1 0.8 0
23.4 0.8 0
23.7 0.8 0
24 0.8 0
24.3 0.8 0
24.6 0.8 0
24.9 0.8 0
25.2 0.8 0
25.5 0.8 0
25.8 0.8 0
26.1 0.8 0
26.4 0.8 0
26.7 0.8 0
27 0.8 0
27.3 0.8 0
27.6 0.8 0
27.9 0.8 0
28.2 0.8 0
28.5 0.8 0
28.8 0.8 0
29.1 0.8 0
29.4 0.8 0
29.7 0.8 0
30 0.8 0
0 0.9 0
0.3 0.9 0
0.6 0.9 0
0.9 0.9 0
1.2 0.9 0
1.5 0.9 0
1.8 0.9 0
2.1 0.9 0
2.4 0.9 0
2.7 0.9 0
3 0.9 0
3.3 0.9 0
3.6 0.9 0
3.9 0.9 0
4.2 0.9 0
4.5 0.9 0
4.8 0.9 0
5.1 0.9 0
5.4 0.9 0
5.7 0.9 0
6 0.9 0
6.3 0.9 0
6.6 0.9 0
6.9 0.9 0
7.2 0.9 0
7.5 0.9 0
7.8 0.9 0
8.1 0.9 0
8.4 0.9 0
8.7 0.9 0
9 0.9 0
9.3 0.9 0
9.6 0.9 0
9.9 0.9 0
10.2 0.9 0
10.5 0.9 0
10.8 0.9 0
11.1 0.9 0
11.4 0.9 0
11.7 0.9 0
12 0.9 0
12.3 0.9 0
12.6 0.9 0
12.9 0.9 0
13.2 0.9 0
13.5 0.9 0
13.8 0.9 0
14.1 0.9 0
14.4 0.9 0
14.7 0.9 0
15 0.9 0
15.3 0.9 0
15.6 0.9 0
15.9 0.9 0
16.2 0.9 0
16.5 0.9 0
16.8 0.9 0
17.1 0.9 0
17.4 0.9 0
17.7 0.9 0
18 0.9 0
18.3 0.9 0
18.6 0.9 0
18.9 0.9 0
19.2 0.9 0
19.5 0.9 0
19.8 0.9 0
20.1 0.9 0
20.4 0.9 0
20.7 0.9 0
21 0.9 0
21.3 0.9 0
21.6 0.9 0
21.9 0.9 0
22.2 0.9 0
22.5 0.9 0
22.8 0.9 0
23.1 0.9 0
23.4 0.9 0
23.7 0.9 0
24 0.9 0
24.3 0.9 0
24.6 0.9 0
24.9 0.9 0
25.2 0.9 0
25.5 0.9 0
25.8 0.9 0
26.1 0.9 0
26.4 0.9 0
26.7 0.9 0
27 0.9 0
27.3 0.9 0
27.6 0.9 0
27.9 0.9 0
28.2 0.9 0
28.5 0.9 0
28.8 0.9 0
29.1 0.9 0
29.4 0.9 0
29.7 0.9 0
30 0.9 0
0 1 0
0.3 1 0
0.6 1 0
0.9 1 0
1.2 1 0
1.5 1 0
1.8 1 0
2.1 1 0
2.4 1 0
2.7 1 0
3 1 0
3.3 1 0
3.6 1 0
3.9 1 0
4.2 1 0
4.5 1 0
4.8 1 0
5.1 1 0
5.4 1 0
5.7 1 0
6 1 0
6.3 1 0
6.6 1 0
6.9 1 0
7.2 1 0
7.5 1 0
7.8 1 0
8.1 1 0
8.4 1 0
8.7 1 0
9 1 0
9.3 1 0
9.6 1 0
9.9 1 0
10.2 1 0
10.5 1 0
10.8 1 0
11.1 1 0
11.4 1 0
11.7 1 0
12 1 0
12.3 1 0
12.6 1 0
12.9 1 0
13.2 1 0
13.5 1 0
13.8 1 0
14.1 1 0
14.4 1 0
14.7 1 0
15 1 0
15.3 1 0
15.6 1 0
15.9 1 0
16.2 1 0
16.5 1 0
16.8 1 0
17.1 1 0
17.4 1 0
17.7 1 0
18 1 0
18.3 1 0
18.6 1 0
18.9 1 0
19.2 1 0
19.5 1 0
19.8 1 0
20.1 1 0
20.4 1 0
20.7 1 0
21 1 0
21.3 1 0
21.6 1 0
21.9 1 0
22.2 1 0
22.5 1 0
22.8 1 0
23.1 1 0
23.4 1 0
23.7 1 0
24 1 0
24.3 1 0
24.6 1 0
24.9 1 0
25.2 1 0
25.5 1 0
25.8 1 0
26.1 1 0
26.4 1 0
26.7 1 0
27 1 0
27.3 1 0
27.6 1 0
27.9 1 0
28.2 1 0
28.5 1 0
28.8 1 0
29.1 1 0
29.4 1 0
29.7 1 0
30 1 0

POINT_DATA 1111

SCALARS v double
LOOKUP_TABLE default
0
0
0
0
0
0
0
0
0
0
0
0
0
0
0
0
0
0
0
0
0
0
0
0
0
0
0
0
0
0
0
0
0
0
0
0
0
0
0
0
0
0
0
0
0
0
0
0
0
0
0
0
0
0
0
0
0
0
0
0
0
0
0
0
0
0
0
0
0
0
0
0
0
0
0
0
0
0
0
0
0
0
0
0
0
0
0
0
0
0
0
0
0
0
0
0
0
0
0
0
0
-0.0359859
0.0359859
0.0367619
0.0309383
0.0247937
0.0193688
0.0148922
0.011356
0.00865025
0.00662569
0.00513162
0.00403562
0.00323083
0.00263578
0.00219059
0.00185224
0.00159018
0.00138271
0.00121434
0.00107378
0.000952705
0.000844853
0.000745654
0.000652052
0.000562447
0.000476569
0.000395203
0.000319763
0.000251818
0.000192654
0.000142985
0.000102843
7.16319e-05
4.82856e-05
3.14826e-05
1.98428e-05
1.20802e-05
7.09586e-06
4.01502e-06
2.18326e-06
1.13722e-06
5.65036e-07
2.66656e-07
1.1976e-07
5.27621e-08
2.54603e-08
1.63215e-08
1.44894e-08
1.50704e-08
1.61437e-08
1.69947e-08
1.74824e-08
1.76425e-08
1.75567e-08
1.73051e-08
1.69488e-08
1.6529e-08
1.60714e-08
1.55908e-08
1.5096e-08
1.45918e-08
1.4081e-08
1.35655e-08
1.30462e-08
1.25242e-08
1.2e-08
1.14743e-08
1.09476e-08
1.04206e-08
9.89386e-09
9.36802e-09
8.8438e-09
8.32195e-09
7.80328e-09
7.28867e-09
6.77905e-09
6.27544e-09
5.77859e-09
5.28968e-09
4.81005e-09
4.3415e-09
3.88652e-09
3.44527e-09
3.01453e-09
2.59631e-09
2.19488e-09
1.79657e-09
1.45069e-09
1.02022e-09
9.78905e-10
-2.9814e-10
1.55931e-09
-8.34072e-09
1.41491e-08
-9.14942e-08
9.89243e-08
-1.05373e-06
-5.74657e-07
-5.21421e-06
-1.6649e-05
-1.6649e-05
-0.0259716
0.0259716
0.03387
0.0318859
0.0277093
0.0232684
0.0192107
0.0157606
0.0129474
0.0107075
0.00894302
0.00755452
0.00645531
0.00557594
0.00486334
0.00427782
0.0037898
0.00337689
0.00302165
0.00270992
0.00242992
0.00217187
0.00192813
0.00169357
0.00146594
0.00124574
0.00103579
0.000840244
0.000663446
0.000508948
0.000378785
0.000273207
0.000190812
0.000128951
8.42676e-05
5.32095e-05
3.2433e-05
1.90564e-05
1.07703e-05
5.83588e-06
3.01559e-06
1.47319e-06
6.70593e-07
2.77531e-07
1.00073e-07
2.9227e-08
6.53197e-09
2.67485e-09
5.04559e-09
8.68352e-09
1.17266e-08
1.3784e-08
1.49539e-08
1.54651e-08
1.55395e-08
1.53457e-08
1.49958e-08
1.45582e-08
1.40723e-08
1.35601e-08
1.30335e-08
1.2499e-08
1.196e-08
1.14187e-08
1.08762e-08
1.03335e-08
9.79129e-09
9.25027e-09
8.7111e-09
8.17449e-09
7.6412e-09
7.11204e-09
6.5879e-09
6.06973e-09
5.55853e-09
5.05535e-09
4.56131e-09
4.07687e-09
3.60348e-09
3.14283e-09
2.69682e-09
2.26629e-09
1.84972e-09
1.44103e-09
1.04462e-09
6.60341e-10
2.57368e-10
-1.22796e-10
-5.18234e-10
-5.70488e-10
-1.95397e-09
9.24555e-10
-1.38693e-08
2.26459e-08
-1.58604e-07
2.12542e-07
-2.05068e-06
8.12372e-07
-2.63844e-05
-4.308e-05
-4.308e-05
-0.0142106
0.0142106
0.0209505
0.020866
0.0189119
0.0164968
0.0141327
0.0120299
0.0102539
0.00879505
0.00761044
0.00664857
0.00586155
0.00520979
0.00466251
0.00419651
0.00379425
0.00344223
0.00312945
0.00284651
0.00258505
0.00233773
0.0020986
0.00186369
0.00163151
0.00140314
0.00118186
0.000972363
0.000779708
0.000608277
0.000461022
0.000339083
0.000241804
0.000167057
0.000111738
7.2301e-05
4.52165e-05
2.72966e-05
1.58771e-05
8.87249e-06
4.74213e-06
2.4063e-06
1.14491e-06
4.99571e-07
1.91142e-07
5.71165e-08
7.57581e-09
-4.62553e-09
-3.16183e-09
1.38642e-09
5.7537e-09
8.968e-09
1.09629e-08
1.1998e-08
1.23793e-08
1.23545e-08
1.20933e-08
1.1701e-08
1.12386e-08
1.07403e-08
1.02243e-08
9.70022e-09
9.17335e-09
8.64641e-09
8.12106e-09
7.59838e-09
7.07919e-09
6.56425e-09
6.05427e-09
5.55001e-09
5.05228e-09
4.56196e-09
4.07998e-09
3.60736e-09
3.14513e-09
2.69441e-09
2.25636e-09
1.83117e-09
1.42039e-09
1.02565e-09
6.50962e-10
2.89448e-10
-8.36987e-11
-4.4216e-10
-7.79812e-10
-1.09933e-09
-1.39758e-09
-1.61087e-09
-1.86942e-09
-1.78084e-09
-3.02641e-09
8.14095e-11
-1.43459e-08
2.45369e-08
-1.6059e-07
2.71383e-07
-2.13469e-06
1.97685e-06
-3.25189e-05
-4.78119e-05
-4.78119e-05
-0.00447522
0.00447522
0.00693975
0.00706185
0.00650818
0.00576935
0.00502383
0.00434764
0.0037678
0.00328508
0.00288799
0.00256121
0.00228998
0.00206191
0.00186733
0.00169893
0.00155117
0.00141977
0.00130116
0.0011922
0.00109
0.000991941
0.000895872
0.000800372
0.000704968
0.000610214
0.000517564
0.000429062
0.000346927
0.000273135
0.000209097
0.000155483
0.000112202
7.8521e-05
5.32541e-05
3.49791e-05
2.22336e-05
1.36618e-05
8.1032e-06
4.6292e-06
2.53864e-06
1.32955e-06
6.59818e-07
3.06702e-07
1.31261e-07
5.06788e-08
1.7976e-08
7.32394e-09
5.63498e-09
6.99154e-09
8.7875e-09
1.01243e-08
1.08436e-08
1.10584e-08
1.09367e-08
1.06165e-08
1.01894e-08
9.70873e-09
9.20312e-09
8.68735e-09
8.1688e-09
7.65122e-09
7.1366e-09
6.62617e-09
6.1208e-09
5.62121e-09
5.12811e-09
4.64218e-09
4.16416e-09
3.69482e-09
3.235e-09
2.78559e-09
2.34754e-09
1.92186e-09
1.50959e-09
1.11189e-09
7.29852e-10
3.63869e-10
1.31345e-11
-3.20492e-10
-6.33578e-10
-9.30538e-10
-1.2097e-09
-1.47223e-09
-1.71704e-09
-1.93998e-09
-2.1291e-09
-2.24405e-09
-2.36474e-09
-2.29437e-09
-2.85015e-09
-1.33458e-09
-7.58731e-09
1.0271e-08
-7.04362e-08
1.31424e-07
-9.20078e-07
1.05167e-06
-1.43157e-05
-2.07559e-05
-2.07559e-05
0.00447519
-0.00447519
-0.00693968
-0.00706175
-0.00650807
-0.00576925
-0.00502373
-0.00434755
-0.00376771
-0.00328499
-0.00288791
-0.00256113
-0.0022899
-0.00206184
-0.00186726
-0.00169887
-0.00155112
-0.00141972
-0.00130112
-0.00119217
-0.00108997
-0.00099191
-0.000895842
-0.000800341
-0.000704937
-0.000610182
-0.000517533
-0.000429032
-0.000346898
-0.000273108
-0.000209071
-0.000155457
-0.000112177
-7.84956e-05
-5.32283e-05
-3.49528e-05
-2.22068e-05
-1.36346e-05
-8.07577e-06
-4.60164e-06
-2.51106e-06
-1.30197e-06
-6.3197e-07
-2.78199e-07
-1.02018e-07
-2.06785e-08
1.29353e-08
2.36657e-08
2.46506e-08
2.23043e-08
1.92726e-08
1.6523e-08
1.43098e-08
1.26131e-08
1.13271e-08
1.03352e-08
9.53848e-09
8.86391e-09
8.26254e-09
7.70408e-09
7.17103e-09
6.6539e-09
6.14794e-09
5.65101e-09
5.16239e-09
4.68205e-09
4.21038e-09
3.74793e-09
3.2954e-09
2.85354e-09
2.42317e-09
2.00517e-09
1.60048e-09
1.21005e-09
8.3491e-10
4.76195e-10
1.34972e-10
-1.85264e-10
-4.86152e-10
-7.65703e-10
-1.02539e-09
-1.26764e-09
-1.48879e-09
-1.68985e-09
-1.869e-09
-2.02229e-09
-2.13218e-09
-2.19879e-09
-2.18457e-09
-2.28514e-09
-1.79238e-09
-3.15515e-09
3.22035e-09
-1.44135e-08
6.64349e-08
-1.35143e-07
9.16705e-07
-1.05464e-06
1.4313e-05
2.07545e-05
2.07545e-05
0.0142106
-0.0142106
-0.0209504
-0.0208659
-0.0189118
-0.0164967
-0.0141326
-0.0120298
-0.0102538
-0.00879497
-0.00761037
-0.0066485
-0.00586148
-0.00520972
-0.00466245
-0.00419645
-0.00379421
-0.00344218
-0.00312941
-0.00284648
-0.00258502
-0.0023377
-0.00209857
-0.00186366
-0.00163148
-0.0014031
-0.00118182
-0.00097233
-0.000779677
-0.000608247
-0.000460992
-0.000339053
-0.000241774
-0.000167027
-0.000111707
-7.22701e-05
-4.51851e-05
-2.72649e-05
-1.58452e-05
-8.84065e-06
-4.71045e-06
-2.3749e-06
-1.11359e-06
-4.67881e-07
-1.58795e-07
-2.39225e-08
2.55326e-08
3.66985e-08
3.41149e-08
2.8132e-08
2.24305e-08
1.79912e-08
1.4813e-08
1.26139e-08
1.10917e-08
1.00039e-08
9.17937e-09
8.5074e-09
7.92096e-09
7.38188e-09
6.8696e-09
6.37364e-09
5.88903e-09
5.41365e-09
4.94682e-09
4.48859e-09
4.03934e-09
3.59964e-09
3.17016e-09
2.75163e-09
2.34483e-09
1.95056e-09
1.5697e-09
1.20316e-09
8.51921e-10
5.17058e-10
1.99836e-10
-9.52837e-11
-3.66451e-10
-6.17973e-10
-8.50098e-10
-1.06409e-09
-1.25616e-09
-1.42706e-09
-1.57377e-09
-1.69458e-09
-1.76739e-09
-1.82728e-09
-1.7346e-09
-1.99376e-09
-7.92025e-10
-3.98743e-09
1.07343e-08
-2.82139e-08
1.57188e-07
-2.74707e-07
2.13159e-06
-1.97954e-06
3.25165e-05
4.78107e-05
4.78107e-05
0.0259716
-0.0259716
-0.0338699
-0.0318858
-0.0277092
-0.0232683
-0.0192106
-0.0157606
-0.0129474
-0.0107074
-0.00894296
-0.00755446
-0.00645525
-0.00557589
-0.00486329
-0.00427777
-0.00378976
-0.00337685
-0.00302161
-0.00270988
-0.00242988
-0.00217184
-0.00192809
-0.00169354
-0.0014659
-0.0012457
-0.00103576
-0.000840206
-0.000663409
-0.000508912
-0.000378749
-0.000273171
-0.000190775
-0.000128914
-8.42299e-05
-5.31714e-05
-3.23945e-05
-1.90179e-05
-1.07318e-05
-5.79748e-06
-2.97749e-06
-1.43556e-06
-6.33394e-07
-2.40387e-07
-6.26302e-08
8.09608e-09
2.86364e-08
3.03618e-08
2.65205e-08
2.19988e-08
1.82409e-08
1.54593e-08
1.34896e-08
1.21002e-08
1.10921e-08
1.03197e-08
9.68564e-09
9.12968e-09
8.61666e-09
8.1273e-09
7.65167e-09
7.18495e-09
6.72509e-09
6.27137e-09
5.82377e-09
5.38259e-09
4.9483e-09
4.52148e-09
4.10273e-09
3.69271e-09
3.29213e-09
2.90172e-09
2.52229e-09
2.1547e-09
1.79989e-09
1.45889e-09
1.13293e-09
8.21782e-10
5.27712e-10
2.53348e-10
8.83899e-13
-2.20046e-10
-4.24241e-10
-6.10326e-10
-7.74659e-10
-9.17754e-10
-1.01662e-09
-1.12338e-09
-1.0542e-09
-1.40484e-09
-1.38069e-10
-3.3976e-09
1.1684e-08
-2.51871e-08
1.56332e-07
-2.14984e-07
2.04836e-06
-8.14414e-07
2.63826e-05
4.3079e-05
4.3079e-05
0.0359858
-0.0359858
-0.0367618
-0.0309382
-0.0247936
-0.0193687
-0.0148922
-0.011356
-0.0086502
-0.00662564
-0.00513157
-0.00403557
-0.00323079
-0.00263574
-0.00219054
-0.0018522
-0.00159014
-0.00138267
-0.0012143
-0.00107374
-0.000952665
-0.000844812
-0.000745612
-0.000652009
-0.000562404
-0.000476526
-0.000395159
-0.00031972
-0.000251775
-0.00019261
-0.000142941
-0.0001028
-7.15884e-05
-4.82419e-05
-3.14388e-05
-1.97989e-05
-1.20364e-05
-7.05208e-06
-3.97138e-06
-2.13981e-06
-1.094e-06
-5.2213e-07
-2.24178e-07
-7.76061e-08
-1.08824e-08
1.42806e-08
2.13035e-08
2.19123e-08
2.05203e-08
1.88194e-08
1.73257e-08
1.61306e-08
1.51914e-08
1.44376e-08
1.38057e-08
1.32484e-08
1.27339e-08
1.22423e-08
1.17623e-08
1.12878e-08
1.08157e-08
1.0345e-08
9.87527e-09
9.40659e-09
8.93932e-09
8.47391e-09
8.01085e-09
7.5507e-09
7.09402e-09
6.64144e-09
6.19361e-09
5.75123e-09
5.31509e-09
4.88602e-09
4.46493e-09
4.05281e-09
3.65076e-09
3.25926e-09
2.8798e-09
2.51442e-09
2.16321e-09
1.82632e-09
1.5087e-09
1.21051e-09
9.33713e-10
6.78399e-10
4.54157e-10
2.3843e-10
1.18635e-10
-1.91409e-10
5.33355e-10
-1.75239e-09
7.92811e-09
-1.49512e-08
9.06099e-08
-1.00135e-07
1.05254e-06
5.73539e-07
5.21326e-06
1.66482e-05
1.66482e-05
0
0
0
0
0
0
0
0
0
0
0
0
0
0
0
0
0
0
0
0
0
0
0
0
0
0
0
0
0
0
0
0
0
0
0
0
0
0
0
0
0
0
0
0
0
0
0
0
0
0
0
0
0
0
0
0
0
0
0
0
0
0
0
0
0
0
0
0
0
0
0
0
0
0
0
0
0
0
0
0
0
0
0
0
0
0
0
0
0
0
0
0
0
0
0
0
0
0
0
0
0
0
0
0
0
0
0
0
0
0
0
0
0
0
0
0
0
0
0
0
0
0
0
0
0
0
0
0
0
0
0
0
0
0
0
0
0
0
0
0
0
0
0
0
0
0
0
0
0
0
0
0
0
0
0
0
0
0
0
0
0
0
0
0
0
0
0
0
0
0
0
0
0
0
0
0
0
0
0
0
0
0
0
0
0
0
0
0
0
0
0
0
0
0
0
0
0
0
0
0
0
0
