# vtk DataFile Version 2.0
FlowField
ASCII
DATASET STRUCTURED_GRID
DIMENSIONS 102 1 12 
POINTS 1224 double
0 0 0
0.4 0 0
0.8 0 0
1.2 0 0
1.6 0 0
2 0 0
2.4 0 0
2.8 0 0
3.2 0 0
3.6 0 0
4 0 0
4.4 0 0
4.8 0 0
5.2 0 0
5.6 0 0
6 0 0
6.4 0 0
6.8 0 0
7.2 0 0
7.6 0 0
8 0 0
8.4 0 0
8.8 0 0
9.2 0 0
9.6 0 0
10 0 0
10.4 0 0
10.8 0 0
11.2 0 0
11.6 0 0
12 0 0
12.4 0 0
12.8 0 0
13.2 0 0
13.6 0 0
14 0 0
14.4 0 0
14.8 0 0
15.2 0 0
15.6 0 0
16 0 0
16.4 0 0
16.8 0 0
17.2 0 0
17.6 0 0
18 0 0
18.4 0 0
18.8 0 0
19.2 0 0
19.6 0 0
20 0 0
20.4 0 0
20.8 0 0
21.2 0 0
21.6 0 0
22 0 0
22.4 0 0
22.8 0 0
23.2 0 0
23.6 0 0
24 0 0
24.4 0 0
24.8 0 0
25.2 0 0
25.6 0 0
26 0 0
26.4 0 0
26.8 0 0
27.2 0 0
27.6 0 0
28 0 0
28.4 0 0
28.8 0 0
29.2 0 0
29.6 0 0
30 0 0
30.4 0 0
30.8 0 0
31.2 0 0
31.6 0 0
32 0 0
32.4 0 0
32.8 0 0
33.2 0 0
33.6 0 0
34 0 0
34.4 0 0
34.8 0 0
35.2 0 0
35.6 0 0
36 0 0
36.4 0 0
36.8 0 0
37.2 0 0
37.6 0 0
38 0 0
38.4 0 0
38.8 0 0
39.2 0 0
39.6 0 0
40 0 0
40.4 0 0
0 0.1 0
0.4 0.1 0
0.8 0.1 0
1.2 0.1 0
1.6 0.1 0
2 0.1 0
2.4 0.1 0
2.8 0.1 0
3.2 0.1 0
3.6 0.1 0
4 0.1 0
4.4 0.1 0
4.8 0.1 0
5.2 0.1 0
5.6 0.1 0
6 0.1 0
6.4 0.1 0
6.8 0.1 0
7.2 0.1 0
7.6 0.1 0
8 0.1 0
8.4 0.1 0
8.8 0.1 0
9.2 0.1 0
9.6 0.1 0
10 0.1 0
10.4 0.1 0
10.8 0.1 0
11.2 0.1 0
11.6 0.1 0
12 0.1 0
12.4 0.1 0
12.8 0.1 0
13.2 0.1 0
13.6 0.1 0
14 0.1 0
14.4 0.1 0
14.8 0.1 0
15.2 0.1 0
15.6 0.1 0
16 0.1 0
16.4 0.1 0
16.8 0.1 0
17.2 0.1 0
17.6 0.1 0
18 0.1 0
18.4 0.1 0
18.8 0.1 0
19.2 0.1 0
19.6 0.1 0
20 0.1 0
20.4 0.1 0
20.8 0.1 0
21.2 0.1 0
21.6 0.1 0
22 0.1 0
22.4 0.1 0
22.8 0.1 0
23.2 0.1 0
23.6 0.1 0
24 0.1 0
24.4 0.1 0
24.8 0.1 0
25.2 0.1 0
25.6 0.1 0
26 0.1 0
26.4 0.1 0
26.8 0.1 0
27.2 0.1 0
27.6 0.1 0
28 0.1 0
28.4 0.1 0
28.8 0.1 0
29.2 0.1 0
29.6 0.1 0
30 0.1 0
30.4 0.1 0
30.8 0.1 0
31.2 0.1 0
31.6 0.1 0
32 0.1 0
32.4 0.1 0
32.8 0.1 0
33.2 0.1 0
33.6 0.1 0
34 0.1 0
34.4 0.1 0
34.8 0.1 0
35.2 0.1 0
35.6 0.1 0
36 0.1 0
36.4 0.1 0
36.8 0.1 0
37.2 0.1 0
37.6 0.1 0
38 0.1 0
38.4 0.1 0
38.8 0.1 0
39.2 0.1 0
39.6 0.1 0
40 0.1 0
40.4 0.1 0
0 0.2 0
0.4 0.2 0
0.8 0.2 0
1.2 0.2 0
1.6 0.2 0
2 0.2 0
2.4 0.2 0
2.8 0.2 0
3.2 0.2 0
3.6 0.2 0
4 0.2 0
4.4 0.2 0
4.8 0.2 0
5.2 0.2 0
5.6 0.2 0
6 0.2 0
6.4 0.2 0
6.8 0.2 0
7.2 0.2 0
7.6 0.2 0
8 0.2 0
8.4 0.2 0
8.8 0.2 0
9.2 0.2 0
9.6 0.2 0
10 0.2 0
10.4 0.2 0
10.8 0.2 0
11.2 0.2 0
11.6 0.2 0
12 0.2 0
12.4 0.2 0
12.8 0.2 0
13.2 0.2 0
13.6 0.2 0
14 0.2 0
14.4 0.2 0
14.8 0.2 0
15.2 0.2 0
15.6 0.2 0
16 0.2 0
16.4 0.2 0
16.8 0.2 0
17.2 0.2 0
17.6 0.2 0
18 0.2 0
18.4 0.2 0
18.8 0.2 0
19.2 0.2 0
19.6 0.2 0
20 0.2 0
20.4 0.2 0
20.8 0.2 0
21.2 0.2 0
21.6 0.2 0
22 0.2 0
22.4 0.2 0
22.8 0.2 0
23.2 0.2 0
23.6 0.2 0
24 0.2 0
24.4 0.2 0
24.8 0.2 0
25.2 0.2 0
25.6 0.2 0
26 0.2 0
26.4 0.2 0
26.8 0.2 0
27.2 0.2 0
27.6 0.2 0
28 0.2 0
28.4 0.2 0
28.8 0.2 0
29.2 0.2 0
29.6 0.2 0
30 0.2 0
30.4 0.2 0
30.8 0.2 0
31.2 0.2 0
31.6 0.2 0
32 0.2 0
32.4 0.2 0
32.8 0.2 0
33.2 0.2 0
33.6 0.2 0
34 0.2 0
34.4 0.2 0
34.8 0.2 0
35.2 0.2 0
35.6 0.2 0
36 0.2 0
36.4 0.2 0
36.8 0.2 0
37.2 0.2 0
37.6 0.2 0
38 0.2 0
38.4 0.2 0
38.8 0.2 0
39.2 0.2 0
39.6 0.2 0
40 0.2 0
40.4 0.2 0
0 0.3 0
0.4 0.3 0
0.8 0.3 0
1.2 0.3 0
1.6 0.3 0
2 0.3 0
2.4 0.3 0
2.8 0.3 0
3.2 0.3 0
3.6 0.3 0
4 0.3 0
4.4 0.3 0
4.8 0.3 0
5.2 0.3 0
5.6 0.3 0
6 0.3 0
6.4 0.3 0
6.8 0.3 0
7.2 0.3 0
7.6 0.3 0
8 0.3 0
8.4 0.3 0
8.8 0.3 0
9.2 0.3 0
9.6 0.3 0
10 0.3 0
10.4 0.3 0
10.8 0.3 0
11.2 0.3 0
11.6 0.3 0
12 0.3 0
12.4 0.3 0
12.8 0.3 0
13.2 0.3 0
13.6 0.3 0
14 0.3 0
14.4 0.3 0
14.8 0.3 0
15.2 0.3 0
15.6 0.3 0
16 0.3 0
16.4 0.3 0
16.8 0.3 0
17.2 0.3 0
17.6 0.3 0
18 0.3 0
18.4 0.3 0
18.8 0.3 0
19.2 0.3 0
19.6 0.3 0
20 0.3 0
20.4 0.3 0
20.8 0.3 0
21.2 0.3 0
21.6 0.3 0
22 0.3 0
22.4 0.3 0
22.8 0.3 0
23.2 0.3 0
23.6 0.3 0
24 0.3 0
24.4 0.3 0
24.8 0.3 0
25.2 0.3 0
25.6 0.3 0
26 0.3 0
26.4 0.3 0
26.8 0.3 0
27.2 0.3 0
27.6 0.3 0
28 0.3 0
28.4 0.3 0
28.8 0.3 0
29.2 0.3 0
29.6 0.3 0
30 0.3 0
30.4 0.3 0
30.8 0.3 0
31.2 0.3 0
31.6 0.3 0
32 0.3 0
32.4 0.3 0
32.8 0.3 0
33.2 0.3 0
33.6 0.3 0
34 0.3 0
34.4 0.3 0
34.8 0.3 0
35.2 0.3 0
35.6 0.3 0
36 0.3 0
36.4 0.3 0
36.8 0.3 0
37.2 0.3 0
37.6 0.3 0
38 0.3 0
38.4 0.3 0
38.8 0.3 0
39.2 0.3 0
39.6 0.3 0
40 0.3 0
40.4 0.3 0
0 0.4 0
0.4 0.4 0
0.8 0.4 0
1.2 0.4 0
1.6 0.4 0
2 0.4 0
2.4 0.4 0
2.8 0.4 0
3.2 0.4 0
3.6 0.4 0
4 0.4 0
4.4 0.4 0
4.8 0.4 0
5.2 0.4 0
5.6 0.4 0
6 0.4 0
6.4 0.4 0
6.8 0.4 0
7.2 0.4 0
7.6 0.4 0
8 0.4 0
8.4 0.4 0
8.8 0.4 0
9.2 0.4 0
9.6 0.4 0
10 0.4 0
10.4 0.4 0
10.8 0.4 0
11.2 0.4 0
11.6 0.4 0
12 0.4 0
12.4 0.4 0
12.8 0.4 0
13.2 0.4 0
13.6 0.4 0
14 0.4 0
14.4 0.4 0
14.8 0.4 0
15.2 0.4 0
15.6 0.4 0
16 0.4 0
16.4 0.4 0
16.8 0.4 0
17.2 0.4 0
17.6 0.4 0
18 0.4 0
18.4 0.4 0
18.8 0.4 0
19.2 0.4 0
19.6 0.4 0
20 0.4 0
20.4 0.4 0
20.8 0.4 0
21.2 0.4 0
21.6 0.4 0
22 0.4 0
22.4 0.4 0
22.8 0.4 0
23.2 0.4 0
23.6 0.4 0
24 0.4 0
24.4 0.4 0
24.8 0.4 0
25.2 0.4 0
25.6 0.4 0
26 0.4 0
26.4 0.4 0
26.8 0.4 0
27.2 0.4 0
27.6 0.4 0
28 0.4 0
28.4 0.4 0
28.8 0.4 0
29.2 0.4 0
29.6 0.4 0
30 0.4 0
30.4 0.4 0
30.8 0.4 0
31.2 0.4 0
31.6 0.4 0
32 0.4 0
32.4 0.4 0
32.8 0.4 0
33.2 0.4 0
33.6 0.4 0
34 0.4 0
34.4 0.4 0
34.8 0.4 0
35.2 0.4 0
35.6 0.4 0
36 0.4 0
36.4 0.4 0
36.8 0.4 0
37.2 0.4 0
37.6 0.4 0
38 0.4 0
38.4 0.4 0
38.8 0.4 0
39.2 0.4 0
39.6 0.4 0
40 0.4 0
40.4 0.4 0
0 0.5 0
0.4 0.5 0
0.8 0.5 0
1.2 0.5 0
1.6 0.5 0
2 0.5 0
2.4 0.5 0
2.8 0.5 0
3.2 0.5 0
3.6 0.5 0
4 0.5 0
4.4 0.5 0
4.8 0.5 0
5.2 0.5 0
5.6 0.5 0
6 0.5 0
6.4 0.5 0
6.8 0.5 0
7.2 0.5 0
7.6 0.5 0
8 0.5 0
8.4 0.5 0
8.8 0.5 0
9.2 0.5 0
9.6 0.5 0
10 0.5 0
10.4 0.5 0
10.8 0.5 0
11.2 0.5 0
11.6 0.5 0
12 0.5 0
12.4 0.5 0
12.8 0.5 0
13.2 0.5 0
13.6 0.5 0
14 0.5 0
14.4 0.5 0
14.8 0.5 0
15.2 0.5 0
15.6 0.5 0
16 0.5 0
16.4 0.5 0
16.8 0.5 0
17.2 0.5 0
17.6 0.5 0
18 0.5 0
18.4 0.5 0
18.8 0.5 0
19.2 0.5 0
19.6 0.5 0
20 0.5 0
20.4 0.5 0
20.8 0.5 0
21.2 0.5 0
21.6 0.5 0
22 0.5 0
22.4 0.5 0
22.8 0.5 0
23.2 0.5 0
23.6 0.5 0
24 0.5 0
24.4 0.5 0
24.8 0.5 0
25.2 0.5 0
25.6 0.5 0
26 0.5 0
26.4 0.5 0
26.8 0.5 0
27.2 0.5 0
27.6 0.5 0
28 0.5 0
28.4 0.5 0
28.8 0.5 0
29.2 0.5 0
29.6 0.5 0
30 0.5 0
30.4 0.5 0
30.8 0.5 0
31.2 0.5 0
31.6 0.5 0
32 0.5 0
32.4 0.5 0
32.8 0.5 0
33.2 0.5 0
33.6 0.5 0
34 0.5 0
34.4 0.5 0
34.8 0.5 0
35.2 0.5 0
35.6 0.5 0
36 0.5 0
36.4 0.5 0
36.8 0.5 0
37.2 0.5 0
37.6 0.5 0
38 0.5 0
38.4 0.5 0
38.8 0.5 0
39.2 0.5 0
39.6 0.5 0
40 0.5 0
40.4 0.5 0
0 0.6 0
0.4 0.6 0
0.8 0.6 0
1.2 0.6 0
1.6 0.6 0
2 0.6 0
2.4 0.6 0
2.8 0.6 0
3.2 0.6 0
3.6 0.6 0
4 0.6 0
4.4 0.6 0
4.8 0.6 0
5.2 0.6 0
5.6 0.6 0
6 0.6 0
6.4 0.6 0
6.8 0.6 0
7.2 0.6 0
7.6 0.6 0
8 0.6 0
8.4 0.6 0
8.8 0.6 0
9.2 0.6 0
9.6 0.6 0
10 0.6 0
10.4 0.6 0
10.8 0.6 0
11.2 0.6 0
11.6 0.6 0
12 0.6 0
12.4 0.6 0
12.8 0.6 0
13.2 0.6 0
13.6 0.6 0
14 0.6 0
14.4 0.6 0
14.8 0.6 0
15.2 0.6 0
15.6 0.6 0
16 0.6 0
16.4 0.6 0
16.8 0.6 0
17.2 0.6 0
17.6 0.6 0
18 0.6 0
18.4 0.6 0
18.8 0.6 0
19.2 0.6 0
19.6 0.6 0
20 0.6 0
20.4 0.6 0
20.8 0.6 0
21.2 0.6 0
21.6 0.6 0
22 0.6 0
22.4 0.6 0
22.8 0.6 0
23.2 0.6 0
23.6 0.6 0
24 0.6 0
24.4 0.6 0
24.8 0.6 0
25.2 0.6 0
25.6 0.6 0
26 0.6 0
26.4 0.6 0
26.8 0.6 0
27.2 0.6 0
27.6 0.6 0
28 0.6 0
28.4 0.6 0
28.8 0.6 0
29.2 0.6 0
29.6 0.6 0
30 0.6 0
30.4 0.6 0
30.8 0.6 0
31.2 0.6 0
31.6 0.6 0
32 0.6 0
32.4 0.6 0
32.8 0.6 0
33.2 0.6 0
33.6 0.6 0
34 0.6 0
34.4 0.6 0
34.8 0.6 0
35.2 0.6 0
35.6 0.6 0
36 0.6 0
36.4 0.6 0
36.8 0.6 0
37.2 0.6 0
37.6 0.6 0
38 0.6 0
38.4 0.6 0
38.8 0.6 0
39.2 0.6 0
39.6 0.6 0
40 0.6 0
40.4 0.6 0
0 0.7 0
0.4 0.7 0
0.8 0.7 0
1.2 0.7 0
1.6 0.7 0
2 0.7 0
2.4 0.7 0
2.8 0.7 0
3.2 0.7 0
3.6 0.7 0
4 0.7 0
4.4 0.7 0
4.8 0.7 0
5.2 0.7 0
5.6 0.7 0
6 0.7 0
6.4 0.7 0
6.8 0.7 0
7.2 0.7 0
7.6 0.7 0
8 0.7 0
8.4 0.7 0
8.8 0.7 0
9.2 0.7 0
9.6 0.7 0
10 0.7 0
10.4 0.7 0
10.8 0.7 0
11.2 0.7 0
11.6 0.7 0
12 0.7 0
12.4 0.7 0
12.8 0.7 0
13.2 0.7 0
13.6 0.7 0
14 0.7 0
14.4 0.7 0
14.8 0.7 0
15.2 0.7 0
15.6 0.7 0
16 0.7 0
16.4 0.7 0
16.8 0.7 0
17.2 0.7 0
17.6 0.7 0
18 0.7 0
18.4 0.7 0
18.8 0.7 0
19.2 0.7 0
19.6 0.7 0
20 0.7 0
20.4 0.7 0
20.8 0.7 0
21.2 0.7 0
21.6 0.7 0
22 0.7 0
22.4 0.7 0
22.8 0.7 0
23.2 0.7 0
23.6 0.7 0
24 0.7 0
24.4 0.7 0
24.8 0.7 0
25.2 0.7 0
25.6 0.7 0
26 0.7 0
26.4 0.7 0
26.8 0.7 0
27.2 0.7 0
27.6 0.7 0
28 0.7 0
28.4 0.7 0
28.8 0.7 0
29.2 0.7 0
29.6 0.7 0
30 0.7 0
30.4 0.7 0
30.8 0.7 0
31.2 0.7 0
31.6 0.7 0
32 0.7 0
32.4 0.7 0
32.8 0.7 0
33.2 0.7 0
33.6 0.7 0
34 0.7 0
34.4 0.7 0
34.8 0.7 0
35.2 0.7 0
35.6 0.7 0
36 0.7 0
36.4 0.7 0
36.8 0.7 0
37.2 0.7 0
37.6 0.7 0
38 0.7 0
38.4 0.7 0
38.8 0.7 0
39.2 0.7 0
39.6 0.7 0
40 0.7 0
40.4 0.7 0
0 0.8 0
0.4 0.8 0
0.8 0.8 0
1.2 0.8 0
1.6 0.8 0
2 0.8 0
2.4 0.8 0
2.8 0.8 0
3.2 0.8 0
3.6 0.8 0
4 0.8 0
4.4 0.8 0
4.8 0.8 0
5.2 0.8 0
5.6 0.8 0
6 0.8 0
6.4 0.8 0
6.8 0.8 0
7.2 0.8 0
7.6 0.8 0
8 0.8 0
8.4 0.8 0
8.8 0.8 0
9.2 0.8 0
9.6 0.8 0
10 0.8 0
10.4 0.8 0
10.8 0.8 0
11.2 0.8 0
11.6 0.8 0
12 0.8 0
12.4 0.8 0
12.8 0.8 0
13.2 0.8 0
13.6 0.8 0
14 0.8 0
14.4 0.8 0
14.8 0.8 0
15.2 0.8 0
15.6 0.8 0
16 0.8 0
16.4 0.8 0
16.8 0.8 0
17.2 0.8 0
17.6 0.8 0
18 0.8 0
18.4 0.8 0
18.8 0.8 0
19.2 0.8 0
19.6 0.8 0
20 0.8 0
20.4 0.8 0
20.8 0.8 0
21.2 0.8 0
21.6 0.8 0
22 0.8 0
22.4 0.8 0
22.8 0.8 0
23.2 0.8 0
23.6 0.8 0
24 0.8 0
24.4 0.8 0
24.8 0.8 0
25.2 0.8 0
25.6 0.8 0
26 0.8 0
26.4 0.8 0
26.8 0.8 0
27.2 0.8 0
27.6 0.8 0
28 0.8 0
28.4 0.8 0
28.8 0.8 0
29.2 0.8 0
29.6 0.8 0
30 0.8 0
30.4 0.8 0
30.8 0.8 0
31.2 0.8 0
31.6 0.8 0
32 0.8 0
32.4 0.8 0
32.8 0.8 0
33.2 0.8 0
33.6 0.8 0
34 0.8 0
34.4 0.8 0
34.8 0.8 0
35.2 0.8 0
35.6 0.8 0
36 0.8 0
36.4 0.8 0
36.8 0.8 0
37.2 0.8 0
37.6 0.8 0
38 0.8 0
38.4 0.8 0
38.8 0.8 0
39.2 0.8 0
39.6 0.8 0
40 0.8 0
40.4 0.8 0
0 0.9 0
0.4 0.9 0
0.8 0.9 0
1.2 0.9 0
1.6 0.9 0
2 0.9 0
2.4 0.9 0
2.8 0.9 0
3.2 0.9 0
3.6 0.9 0
4 0.9 0
4.4 0.9 0
4.8 0.9 0
5.2 0.9 0
5.6 0.9 0
6 0.9 0
6.4 0.9 0
6.8 0.9 0
7.2 0.9 0
7.6 0.9 0
8 0.9 0
8.4 0.9 0
8.8 0.9 0
9.2 0.9 0
9.6 0.9 0
10 0.9 0
10.4 0.9 0
10.8 0.9 0
11.2 0.9 0
11.6 0.9 0
12 0.9 0
12.4 0.9 0
12.8 0.9 0
13.2 0.9 0
13.6 0.9 0
14 0.9 0
14.4 0.9 0
14.8 0.9 0
15.2 0.9 0
15.6 0.9 0
16 0.9 0
16.4 0.9 0
16.8 0.9 0
17.2 0.9 0
17.6 0.9 0
18 0.9 0
18.4 0.9 0
18.8 0.9 0
19.2 0.9 0
19.6 0.9 0
20 0.9 0
20.4 0.9 0
20.8 0.9 0
21.2 0.9 0
21.6 0.9 0
22 0.9 0
22.4 0.9 0
22.8 0.9 0
23.2 0.9 0
23.6 0.9 0
24 0.9 0
24.4 0.9 0
24.8 0.9 0
25.2 0.9 0
25.6 0.9 0
26 0.9 0
26.4 0.9 0
26.8 0.9 0
27.2 0.9 0
27.6 0.9 0
28 0.9 0
28.4 0.9 0
28.8 0.9 0
29.2 0.9 0
29.6 0.9 0
30 0.9 0
30.4 0.9 0
30.8 0.9 0
31.2 0.9 0
31.6 0.9 0
32 0.9 0
32.4 0.9 0
32.8 0.9 0
33.2 0.9 0
33.6 0.9 0
34 0.9 0
34.4 0.9 0
34.8 0.9 0
35.2 0.9 0
35.6 0.9 0
36 0.9 0
36.4 0.9 0
36.8 0.9 0
37.2 0.9 0
37.6 0.9 0
38 0.9 0
38.4 0.9 0
38.8 0.9 0
39.2 0.9 0
39.6 0.9 0
40 0.9 0
40.4 0.9 0
0 1 0
0.4 1 0
0.8 1 0
1.2 1 0
1.6 1 0
2 1 0
2.4 1 0
2.8 1 0
3.2 1 0
3.6 1 0
4 1 0
4.4 1 0
4.8 1 0
5.2 1 0
5.6 1 0
6 1 0
6.4 1 0
6.8 1 0
7.2 1 0
7.6 1 0
8 1 0
8.4 1 0
8.8 1 0
9.2 1 0
9.6 1 0
10 1 0
10.4 1 0
10.8 1 0
11.2 1 0
11.6 1 0
12 1 0
12.4 1 0
12.8 1 0
13.2 1 0
13.6 1 0
14 1 0
14.4 1 0
14.8 1 0
15.2 1 0
15.6 1 0
16 1 0
16.4 1 0
16.8 1 0
17.2 1 0
17.6 1 0
18 1 0
18.4 1 0
18.8 1 0
19.2 1 0
19.6 1 0
20 1 0
20.4 1 0
20.8 1 0
21.2 1 0
21.6 1 0
22 1 0
22.4 1 0
22.8 1 0
23.2 1 0
23.6 1 0
24 1 0
24.4 1 0
24.8 1 0
25.2 1 0
25.6 1 0
26 1 0
26.4 1 0
26.8 1 0
27.2 1 0
27.6 1 0
28 1 0
28.4 1 0
28.8 1 0
29.2 1 0
29.6 1 0
30 1 0
30.4 1 0
30.8 1 0
31.2 1 0
31.6 1 0
32 1 0
32.4 1 0
32.8 1 0
33.2 1 0
33.6 1 0
34 1 0
34.4 1 0
34.8 1 0
35.2 1 0
35.6 1 0
36 1 0
36.4 1 0
36.8 1 0
37.2 1 0
37.6 1 0
38 1 0
38.4 1 0
38.8 1 0
39.2 1 0
39.6 1 0
40 1 0
40.4 1 0
0 1.1 0
0.4 1.1 0
0.8 1.1 0
1.2 1.1 0
1.6 1.1 0
2 1.1 0
2.4 1.1 0
2.8 1.1 0
3.2 1.1 0
3.6 1.1 0
4 1.1 0
4.4 1.1 0
4.8 1.1 0
5.2 1.1 0
5.6 1.1 0
6 1.1 0
6.4 1.1 0
6.8 1.1 0
7.2 1.1 0
7.6 1.1 0
8 1.1 0
8.4 1.1 0
8.8 1.1 0
9.2 1.1 0
9.6 1.1 0
10 1.1 0
10.4 1.1 0
10.8 1.1 0
11.2 1.1 0
11.6 1.1 0
12 1.1 0
12.4 1.1 0
12.8 1.1 0
13.2 1.1 0
13.6 1.1 0
14 1.1 0
14.4 1.1 0
14.8 1.1 0
15.2 1.1 0
15.6 1.1 0
16 1.1 0
16.4 1.1 0
16.8 1.1 0
17.2 1.1 0
17.6 1.1 0
18 1.1 0
18.4 1.1 0
18.8 1.1 0
19.2 1.1 0
19.6 1.1 0
20 1.1 0
20.4 1.1 0
20.8 1.1 0
21.2 1.1 0
21.6 1.1 0
22 1.1 0
22.4 1.1 0
22.8 1.1 0
23.2 1.1 0
23.6 1.1 0
24 1.1 0
24.4 1.1 0
24.8 1.1 0
25.2 1.1 0
25.6 1.1 0
26 1.1 0
26.4 1.1 0
26.8 1.1 0
27.2 1.1 0
27.6 1.1 0
28 1.1 0
28.4 1.1 0
28.8 1.1 0
29.2 1.1 0
29.6 1.1 0
30 1.1 0
30.4 1.1 0
30.8 1.1 0
31.2 1.1 0
31.6 1.1 0
32 1.1 0
32.4 1.1 0
32.8 1.1 0
33.2 1.1 0
33.6 1.1 0
34 1.1 0
34.4 1.1 0
34.8 1.1 0
35.2 1.1 0
35.6 1.1 0
36 1.1 0
36.4 1.1 0
36.8 1.1 0
37.2 1.1 0
37.6 1.1 0
38 1.1 0
38.4 1.1 0
38.8 1.1 0
39.2 1.1 0
39.6 1.1 0
40 1.1 0
40.4 1.1 0

POINT_DATA 1224

SCALARS F double
LOOKUP_TABLE default
0
0
0
0
0
0
0
0
0
0
0
0
0
0
0
0
0
0
0
0
0
0
0
0
0
0
0
0
0
0
0
0
0
0
0
0
0
0
0
0
0
0
0
0
0
0
0
0
0
0
0
0
0
0
0
0
0
0
0
0
0
0
0
0
0
0
0
0
0
0
0
0
0
0
0
0
0
0
0
0
0
0
0
0
0
0
0
0
0
0
0
0
0
0
0
0
0
0
0
0
0
0
1
0.804311
0.656121
0.547568
0.47224
0.42154
0.387472
0.364087
0.34748
0.33525
0.325955
0.318724
0.313008
0.308448
0.304791
0.301854
0.299498
0.297613
0.296112
0.294925
0.293994
0.293271
0.292718
0.292301
0.291994
0.291775
0.291625
0.29153
0.291476
0.291454
0.291457
0.291478
0.291516
0.291566
0.291624
0.291686
0.291751
0.291816
0.29188
0.291942
0.291999
0.292052
0.2921
0.292142
0.292178
0.292209
0.292233
0.292253
0.292268
0.29228
0.292288
0.292293
0.292297
0.292299
0.292299
0.2923
0.292299
0.292299
0.292298
0.292298
0.292297
0.292296
0.292296
0.292296
0.292295
0.292295
0.292295
0.292295
0.292294
0.292294
0.292294
0.292294
0.292294
0.292294
0.292294
0.292294
0.292294
0.292294
0.292294
0.292294
0.292294
0.292294
0.292294
0.292294
0.292294
0.292294
0.292294
0.292294
0.292294
0.292294
0.292295
0.292296
0.292305
0.292326
0.292456
0.292768
0.294588
0.299227
0.325683
0.364649
1
0
1
1.02145
1.02563
1.00998
0.981967
0.94898
0.916228
0.886609
0.861278
0.840323
0.823318
0.809658
0.79874
0.790035
0.783106
0.777599
0.773235
0.769791
0.767086
0.764979
0.763353
0.762114
0.761185
0.760503
0.760017
0.759686
0.759474
0.759355
0.759306
0.759309
0.759352
0.759422
0.759511
0.759617
0.759734
0.759858
0.759987
0.760116
0.760244
0.760368
0.760485
0.760593
0.760692
0.760779
0.760854
0.760918
0.76097
0.761011
0.761043
0.761066
0.761082
0.761093
0.7611
0.761104
0.761105
0.761105
0.761104
0.761103
0.761101
0.7611
0.761098
0.761097
0.761096
0.761095
0.761094
0.761094
0.761094
0.761093
0.761093
0.761093
0.761093
0.761093
0.761092
0.761092
0.761092
0.761092
0.761092
0.761092
0.761092
0.761092
0.761092
0.761092
0.761092
0.761092
0.761092
0.761092
0.761092
0.761092
0.761092
0.761092
0.761092
0.761093
0.761096
0.761102
0.761155
0.761229
0.762071
0.762835
0.776125
0.788893
1
0
1
1.03822
1.08257
1.11788
1.14121
1.15379
1.15829
1.15745
1.15354
1.14816
1.14237
1.13679
1.13174
1.12737
1.1237
1.12068
1.11825
1.11632
1.11482
1.11367
1.1128
1.11217
1.11172
1.11141
1.11121
1.11109
1.11104
1.11104
1.11107
1.11113
1.11119
1.11127
1.11136
1.11144
1.11152
1.11161
1.11169
1.11177
1.11185
1.11192
1.112
1.11207
1.11213
1.11219
1.11225
1.11229
1.11233
1.11236
1.11239
1.11241
1.11242
1.11243
1.11244
1.11244
1.11244
1.11244
1.11244
1.11244
1.11244
1.11244
1.11244
1.11244
1.11244
1.11244
1.11243
1.11243
1.11243
1.11243
1.11243
1.11243
1.11243
1.11243
1.11243
1.11243
1.11243
1.11243
1.11243
1.11243
1.11243
1.11243
1.11243
1.11243
1.11243
1.11243
1.11243
1.11243
1.11243
1.11243
1.11243
1.11243
1.11243
1.11243
1.11243
1.11243
1.11242
1.11232
1.1123
1.11091
1.10884
1.10376
1
0
1
1.03588
1.08379
1.1307
1.17253
1.20803
1.23722
1.26074
1.27944
1.29418
1.30574
1.3148
1.32191
1.32748
1.33187
1.33533
1.33806
1.34022
1.34193
1.34327
1.34432
1.34513
1.34576
1.34624
1.3466
1.34686
1.34704
1.34716
1.34724
1.34727
1.34728
1.34727
1.34724
1.3472
1.34715
1.34708
1.34702
1.34695
1.34688
1.34681
1.34675
1.34669
1.34664
1.34659
1.34655
1.34652
1.34649
1.34647
1.34645
1.34644
1.34643
1.34643
1.34643
1.34642
1.34642
1.34642
1.34643
1.34643
1.34643
1.34643
1.34643
1.34643
1.34643
1.34643
1.34643
1.34643
1.34643
1.34643
1.34643
1.34643
1.34643
1.34643
1.34643
1.34643
1.34643
1.34643
1.34643
1.34643
1.34643
1.34643
1.34643
1.34643
1.34643
1.34643
1.34643
1.34643
1.34643
1.34643
1.34643
1.34643
1.34643
1.34643
1.34643
1.34642
1.34636
1.34628
1.34538
1.34465
1.32915
1.332
1
0
1
1.03407
1.08078
1.12872
1.17458
1.21705
1.2556
1.29002
1.3203
1.34657
1.36906
1.38809
1.40402
1.41721
1.42804
1.43684
1.44392
1.44957
1.45402
1.4575
1.46017
1.46219
1.4637
1.46478
1.46554
1.46604
1.46634
1.46649
1.46653
1.46648
1.46638
1.46623
1.46606
1.46587
1.46566
1.46545
1.46524
1.46503
1.46482
1.46462
1.46443
1.46425
1.46408
1.46393
1.4638
1.46368
1.46359
1.46351
1.46345
1.4634
1.46336
1.46334
1.46332
1.46331
1.46331
1.46331
1.46331
1.46331
1.46331
1.46332
1.46332
1.46332
1.46332
1.46333
1.46333
1.46333
1.46333
1.46333
1.46333
1.46333
1.46333
1.46333
1.46333
1.46333
1.46333
1.46333
1.46333
1.46333
1.46333
1.46333
1.46333
1.46333
1.46333
1.46333
1.46333
1.46333
1.46333
1.46333
1.46333
1.46333
1.46333
1.46333
1.46332
1.46333
1.46321
1.46326
1.46163
1.46224
1.43817
1.4526
1
0
1
1.03407
1.08078
1.12872
1.17458
1.21705
1.2556
1.29002
1.3203
1.34657
1.36906
1.38809
1.40402
1.41721
1.42804
1.43684
1.44392
1.44957
1.45402
1.4575
1.46017
1.46219
1.4637
1.46478
1.46554
1.46604
1.46634
1.46649
1.46653
1.46648
1.46638
1.46623
1.46606
1.46587
1.46566
1.46545
1.46524
1.46503
1.46482
1.46462
1.46443
1.46425
1.46408
1.46393
1.4638
1.46368
1.46359
1.46351
1.46345
1.4634
1.46336
1.46334
1.46332
1.46331
1.46331
1.46331
1.46331
1.46331
1.46331
1.46332
1.46332
1.46332
1.46332
1.46333
1.46333
1.46333
1.46333
1.46333
1.46333
1.46333
1.46333
1.46333
1.46333
1.46333
1.46333
1.46333
1.46333
1.46333
1.46333
1.46333
1.46333
1.46333
1.46333
1.46333
1.46333
1.46333
1.46333
1.46333
1.46333
1.46333
1.46333
1.46333
1.46332
1.46333
1.46321
1.46326
1.46163
1.46224
1.43817
1.4526
1
0
1
1.03588
1.08379
1.1307
1.17253
1.20803
1.23722
1.26074
1.27944
1.29418
1.30574
1.3148
1.32191
1.32748
1.33187
1.33533
1.33806
1.34022
1.34193
1.34327
1.34432
1.34514
1.34576
1.34624
1.3466
1.34686
1.34704
1.34716
1.34724
1.34727
1.34728
1.34727
1.34724
1.3472
1.34715
1.34709
1.34702
1.34695
1.34688
1.34681
1.34675
1.34669
1.34664
1.34659
1.34655
1.34652
1.34649
1.34647
1.34645
1.34644
1.34643
1.34643
1.34643
1.34642
1.34642
1.34642
1.34643
1.34643
1.34643
1.34643
1.34643
1.34643
1.34643
1.34643
1.34643
1.34643
1.34643
1.34643
1.34643
1.34643
1.34643
1.34643
1.34643
1.34643
1.34643
1.34643
1.34643
1.34643
1.34643
1.34643
1.34643
1.34643
1.34643
1.34643
1.34643
1.34643
1.34643
1.34643
1.34643
1.34643
1.34643
1.34643
1.34643
1.34642
1.34636
1.34628
1.34538
1.34465
1.32915
1.332
1
0
1
1.03822
1.08257
1.11788
1.14121
1.15379
1.15829
1.15745
1.15354
1.14816
1.14237
1.13679
1.13174
1.12737
1.1237
1.12068
1.11825
1.11632
1.11482
1.11367
1.1128
1.11217
1.11172
1.11141
1.11121
1.11109
1.11104
1.11104
1.11107
1.11113
1.1112
1.11128
1.11136
1.11144
1.11153
1.11161
1.11169
1.11177
1.11185
1.11193
1.112
1.11207
1.11213
1.11219
1.11225
1.11229
1.11233
1.11236
1.11239
1.11241
1.11242
1.11243
1.11244
1.11244
1.11244
1.11244
1.11244
1.11244
1.11244
1.11244
1.11244
1.11244
1.11244
1.11244
1.11243
1.11243
1.11243
1.11243
1.11243
1.11243
1.11243
1.11243
1.11243
1.11243
1.11243
1.11243
1.11243
1.11243
1.11243
1.11243
1.11243
1.11243
1.11243
1.11243
1.11243
1.11243
1.11243
1.11243
1.11243
1.11243
1.11243
1.11243
1.11243
1.11242
1.11242
1.11232
1.1123
1.11091
1.10884
1.10376
1
0
1
1.02145
1.02563
1.00998
0.981968
0.94898
0.916228
0.886609
0.861278
0.840323
0.823318
0.809658
0.79874
0.790035
0.783106
0.7776
0.773236
0.769791
0.767087
0.76498
0.763354
0.762115
0.761186
0.760504
0.760018
0.759686
0.759475
0.759355
0.759306
0.75931
0.759353
0.759423
0.759512
0.759618
0.759735
0.75986
0.759988
0.760117
0.760245
0.760368
0.760485
0.760594
0.760692
0.760779
0.760854
0.760918
0.76097
0.761011
0.761042
0.761066
0.761082
0.761093
0.7611
0.761104
0.761105
0.761105
0.761104
0.761103
0.761101
0.7611
0.761098
0.761097
0.761096
0.761095
0.761094
0.761094
0.761093
0.761093
0.761093
0.761093
0.761092
0.761092
0.761092
0.761092
0.761092
0.761092
0.761092
0.761092
0.761092
0.761092
0.761092
0.761092
0.761092
0.761092
0.761092
0.761092
0.761091
0.761091
0.761091
0.761091
0.761092
0.761092
0.761095
0.761101
0.761155
0.761229
0.76207
0.762834
0.776124
0.788892
1
0
1
0.804311
0.656121
0.547568
0.47224
0.42154
0.387472
0.364087
0.34748
0.33525
0.325955
0.318724
0.313008
0.308448
0.304791
0.301854
0.299498
0.297613
0.296112
0.294925
0.293994
0.293271
0.292718
0.292301
0.291995
0.291775
0.291626
0.29153
0.291476
0.291455
0.291458
0.291479
0.291516
0.291566
0.291624
0.291687
0.291752
0.291817
0.291881
0.291942
0.291999
0.292052
0.2921
0.292142
0.292178
0.292208
0.292233
0.292253
0.292268
0.29228
0.292288
0.292293
0.292297
0.292299
0.2923
0.2923
0.292299
0.292299
0.292298
0.292298
0.292297
0.292296
0.292296
0.292296
0.292295
0.292295
0.292295
0.292294
0.292294
0.292294
0.292294
0.292294
0.292294
0.292294
0.292294
0.292294
0.292294
0.292294
0.292294
0.292294
0.292294
0.292294
0.292294
0.292294
0.292294
0.292294
0.292294
0.292294
0.292294
0.292294
0.292294
0.292296
0.292305
0.292325
0.292455
0.292767
0.294588
0.299227
0.325683
0.364649
1
0
0
0
0
0
0
0
0
0
0
0
0
0
0
0
0
0
0
0
0
0
0
0
0
0
0
0
0
0
0
0
0
0
0
0
0
0
0
0
0
0
0
0
0
0
0
0
0
0
0
0
0
0
0
0
0
0
0
0
0
0
0
0
0
0
0
0
0
0
0
0
0
0
0
0
0
0
0
0
0
0
0
0
0
0
0
0
0
0
0
0
0
0
0
0
0
0
0
0
0
0
0
0
