# vtk DataFile Version 2.0
FlowField
ASCII
DATASET STRUCTURED_GRID
DIMENSIONS 102 1 12 
POINTS 1224 double
0 0 0
0.4 0 0
0.8 0 0
1.2 0 0
1.6 0 0
2 0 0
2.4 0 0
2.8 0 0
3.2 0 0
3.6 0 0
4 0 0
4.4 0 0
4.8 0 0
5.2 0 0
5.6 0 0
6 0 0
6.4 0 0
6.8 0 0
7.2 0 0
7.6 0 0
8 0 0
8.4 0 0
8.8 0 0
9.2 0 0
9.6 0 0
10 0 0
10.4 0 0
10.8 0 0
11.2 0 0
11.6 0 0
12 0 0
12.4 0 0
12.8 0 0
13.2 0 0
13.6 0 0
14 0 0
14.4 0 0
14.8 0 0
15.2 0 0
15.6 0 0
16 0 0
16.4 0 0
16.8 0 0
17.2 0 0
17.6 0 0
18 0 0
18.4 0 0
18.8 0 0
19.2 0 0
19.6 0 0
20 0 0
20.4 0 0
20.8 0 0
21.2 0 0
21.6 0 0
22 0 0
22.4 0 0
22.8 0 0
23.2 0 0
23.6 0 0
24 0 0
24.4 0 0
24.8 0 0
25.2 0 0
25.6 0 0
26 0 0
26.4 0 0
26.8 0 0
27.2 0 0
27.6 0 0
28 0 0
28.4 0 0
28.8 0 0
29.2 0 0
29.6 0 0
30 0 0
30.4 0 0
30.8 0 0
31.2 0 0
31.6 0 0
32 0 0
32.4 0 0
32.8 0 0
33.2 0 0
33.6 0 0
34 0 0
34.4 0 0
34.8 0 0
35.2 0 0
35.6 0 0
36 0 0
36.4 0 0
36.8 0 0
37.2 0 0
37.6 0 0
38 0 0
38.4 0 0
38.8 0 0
39.2 0 0
39.6 0 0
40 0 0
40.4 0 0
0 0.1 0
0.4 0.1 0
0.8 0.1 0
1.2 0.1 0
1.6 0.1 0
2 0.1 0
2.4 0.1 0
2.8 0.1 0
3.2 0.1 0
3.6 0.1 0
4 0.1 0
4.4 0.1 0
4.8 0.1 0
5.2 0.1 0
5.6 0.1 0
6 0.1 0
6.4 0.1 0
6.8 0.1 0
7.2 0.1 0
7.6 0.1 0
8 0.1 0
8.4 0.1 0
8.8 0.1 0
9.2 0.1 0
9.6 0.1 0
10 0.1 0
10.4 0.1 0
10.8 0.1 0
11.2 0.1 0
11.6 0.1 0
12 0.1 0
12.4 0.1 0
12.8 0.1 0
13.2 0.1 0
13.6 0.1 0
14 0.1 0
14.4 0.1 0
14.8 0.1 0
15.2 0.1 0
15.6 0.1 0
16 0.1 0
16.4 0.1 0
16.8 0.1 0
17.2 0.1 0
17.6 0.1 0
18 0.1 0
18.4 0.1 0
18.8 0.1 0
19.2 0.1 0
19.6 0.1 0
20 0.1 0
20.4 0.1 0
20.8 0.1 0
21.2 0.1 0
21.6 0.1 0
22 0.1 0
22.4 0.1 0
22.8 0.1 0
23.2 0.1 0
23.6 0.1 0
24 0.1 0
24.4 0.1 0
24.8 0.1 0
25.2 0.1 0
25.6 0.1 0
26 0.1 0
26.4 0.1 0
26.8 0.1 0
27.2 0.1 0
27.6 0.1 0
28 0.1 0
28.4 0.1 0
28.8 0.1 0
29.2 0.1 0
29.6 0.1 0
30 0.1 0
30.4 0.1 0
30.8 0.1 0
31.2 0.1 0
31.6 0.1 0
32 0.1 0
32.4 0.1 0
32.8 0.1 0
33.2 0.1 0
33.6 0.1 0
34 0.1 0
34.4 0.1 0
34.8 0.1 0
35.2 0.1 0
35.6 0.1 0
36 0.1 0
36.4 0.1 0
36.8 0.1 0
37.2 0.1 0
37.6 0.1 0
38 0.1 0
38.4 0.1 0
38.8 0.1 0
39.2 0.1 0
39.6 0.1 0
40 0.1 0
40.4 0.1 0
0 0.2 0
0.4 0.2 0
0.8 0.2 0
1.2 0.2 0
1.6 0.2 0
2 0.2 0
2.4 0.2 0
2.8 0.2 0
3.2 0.2 0
3.6 0.2 0
4 0.2 0
4.4 0.2 0
4.8 0.2 0
5.2 0.2 0
5.6 0.2 0
6 0.2 0
6.4 0.2 0
6.8 0.2 0
7.2 0.2 0
7.6 0.2 0
8 0.2 0
8.4 0.2 0
8.8 0.2 0
9.2 0.2 0
9.6 0.2 0
10 0.2 0
10.4 0.2 0
10.8 0.2 0
11.2 0.2 0
11.6 0.2 0
12 0.2 0
12.4 0.2 0
12.8 0.2 0
13.2 0.2 0
13.6 0.2 0
14 0.2 0
14.4 0.2 0
14.8 0.2 0
15.2 0.2 0
15.6 0.2 0
16 0.2 0
16.4 0.2 0
16.8 0.2 0
17.2 0.2 0
17.6 0.2 0
18 0.2 0
18.4 0.2 0
18.8 0.2 0
19.2 0.2 0
19.6 0.2 0
20 0.2 0
20.4 0.2 0
20.8 0.2 0
21.2 0.2 0
21.6 0.2 0
22 0.2 0
22.4 0.2 0
22.8 0.2 0
23.2 0.2 0
23.6 0.2 0
24 0.2 0
24.4 0.2 0
24.8 0.2 0
25.2 0.2 0
25.6 0.2 0
26 0.2 0
26.4 0.2 0
26.8 0.2 0
27.2 0.2 0
27.6 0.2 0
28 0.2 0
28.4 0.2 0
28.8 0.2 0
29.2 0.2 0
29.6 0.2 0
30 0.2 0
30.4 0.2 0
30.8 0.2 0
31.2 0.2 0
31.6 0.2 0
32 0.2 0
32.4 0.2 0
32.8 0.2 0
33.2 0.2 0
33.6 0.2 0
34 0.2 0
34.4 0.2 0
34.8 0.2 0
35.2 0.2 0
35.6 0.2 0
36 0.2 0
36.4 0.2 0
36.8 0.2 0
37.2 0.2 0
37.6 0.2 0
38 0.2 0
38.4 0.2 0
38.8 0.2 0
39.2 0.2 0
39.6 0.2 0
40 0.2 0
40.4 0.2 0
0 0.3 0
0.4 0.3 0
0.8 0.3 0
1.2 0.3 0
1.6 0.3 0
2 0.3 0
2.4 0.3 0
2.8 0.3 0
3.2 0.3 0
3.6 0.3 0
4 0.3 0
4.4 0.3 0
4.8 0.3 0
5.2 0.3 0
5.6 0.3 0
6 0.3 0
6.4 0.3 0
6.8 0.3 0
7.2 0.3 0
7.6 0.3 0
8 0.3 0
8.4 0.3 0
8.8 0.3 0
9.2 0.3 0
9.6 0.3 0
10 0.3 0
10.4 0.3 0
10.8 0.3 0
11.2 0.3 0
11.6 0.3 0
12 0.3 0
12.4 0.3 0
12.8 0.3 0
13.2 0.3 0
13.6 0.3 0
14 0.3 0
14.4 0.3 0
14.8 0.3 0
15.2 0.3 0
15.6 0.3 0
16 0.3 0
16.4 0.3 0
16.8 0.3 0
17.2 0.3 0
17.6 0.3 0
18 0.3 0
18.4 0.3 0
18.8 0.3 0
19.2 0.3 0
19.6 0.3 0
20 0.3 0
20.4 0.3 0
20.8 0.3 0
21.2 0.3 0
21.6 0.3 0
22 0.3 0
22.4 0.3 0
22.8 0.3 0
23.2 0.3 0
23.6 0.3 0
24 0.3 0
24.4 0.3 0
24.8 0.3 0
25.2 0.3 0
25.6 0.3 0
26 0.3 0
26.4 0.3 0
26.8 0.3 0
27.2 0.3 0
27.6 0.3 0
28 0.3 0
28.4 0.3 0
28.8 0.3 0
29.2 0.3 0
29.6 0.3 0
30 0.3 0
30.4 0.3 0
30.8 0.3 0
31.2 0.3 0
31.6 0.3 0
32 0.3 0
32.4 0.3 0
32.8 0.3 0
33.2 0.3 0
33.6 0.3 0
34 0.3 0
34.4 0.3 0
34.8 0.3 0
35.2 0.3 0
35.6 0.3 0
36 0.3 0
36.4 0.3 0
36.8 0.3 0
37.2 0.3 0
37.6 0.3 0
38 0.3 0
38.4 0.3 0
38.8 0.3 0
39.2 0.3 0
39.6 0.3 0
40 0.3 0
40.4 0.3 0
0 0.4 0
0.4 0.4 0
0.8 0.4 0
1.2 0.4 0
1.6 0.4 0
2 0.4 0
2.4 0.4 0
2.8 0.4 0
3.2 0.4 0
3.6 0.4 0
4 0.4 0
4.4 0.4 0
4.8 0.4 0
5.2 0.4 0
5.6 0.4 0
6 0.4 0
6.4 0.4 0
6.8 0.4 0
7.2 0.4 0
7.6 0.4 0
8 0.4 0
8.4 0.4 0
8.8 0.4 0
9.2 0.4 0
9.6 0.4 0
10 0.4 0
10.4 0.4 0
10.8 0.4 0
11.2 0.4 0
11.6 0.4 0
12 0.4 0
12.4 0.4 0
12.8 0.4 0
13.2 0.4 0
13.6 0.4 0
14 0.4 0
14.4 0.4 0
14.8 0.4 0
15.2 0.4 0
15.6 0.4 0
16 0.4 0
16.4 0.4 0
16.8 0.4 0
17.2 0.4 0
17.6 0.4 0
18 0.4 0
18.4 0.4 0
18.8 0.4 0
19.2 0.4 0
19.6 0.4 0
20 0.4 0
20.4 0.4 0
20.8 0.4 0
21.2 0.4 0
21.6 0.4 0
22 0.4 0
22.4 0.4 0
22.8 0.4 0
23.2 0.4 0
23.6 0.4 0
24 0.4 0
24.4 0.4 0
24.8 0.4 0
25.2 0.4 0
25.6 0.4 0
26 0.4 0
26.4 0.4 0
26.8 0.4 0
27.2 0.4 0
27.6 0.4 0
28 0.4 0
28.4 0.4 0
28.8 0.4 0
29.2 0.4 0
29.6 0.4 0
30 0.4 0
30.4 0.4 0
30.8 0.4 0
31.2 0.4 0
31.6 0.4 0
32 0.4 0
32.4 0.4 0
32.8 0.4 0
33.2 0.4 0
33.6 0.4 0
34 0.4 0
34.4 0.4 0
34.8 0.4 0
35.2 0.4 0
35.6 0.4 0
36 0.4 0
36.4 0.4 0
36.8 0.4 0
37.2 0.4 0
37.6 0.4 0
38 0.4 0
38.4 0.4 0
38.8 0.4 0
39.2 0.4 0
39.6 0.4 0
40 0.4 0
40.4 0.4 0
0 0.5 0
0.4 0.5 0
0.8 0.5 0
1.2 0.5 0
1.6 0.5 0
2 0.5 0
2.4 0.5 0
2.8 0.5 0
3.2 0.5 0
3.6 0.5 0
4 0.5 0
4.4 0.5 0
4.8 0.5 0
5.2 0.5 0
5.6 0.5 0
6 0.5 0
6.4 0.5 0
6.8 0.5 0
7.2 0.5 0
7.6 0.5 0
8 0.5 0
8.4 0.5 0
8.8 0.5 0
9.2 0.5 0
9.6 0.5 0
10 0.5 0
10.4 0.5 0
10.8 0.5 0
11.2 0.5 0
11.6 0.5 0
12 0.5 0
12.4 0.5 0
12.8 0.5 0
13.2 0.5 0
13.6 0.5 0
14 0.5 0
14.4 0.5 0
14.8 0.5 0
15.2 0.5 0
15.6 0.5 0
16 0.5 0
16.4 0.5 0
16.8 0.5 0
17.2 0.5 0
17.6 0.5 0
18 0.5 0
18.4 0.5 0
18.8 0.5 0
19.2 0.5 0
19.6 0.5 0
20 0.5 0
20.4 0.5 0
20.8 0.5 0
21.2 0.5 0
21.6 0.5 0
22 0.5 0
22.4 0.5 0
22.8 0.5 0
23.2 0.5 0
23.6 0.5 0
24 0.5 0
24.4 0.5 0
24.8 0.5 0
25.2 0.5 0
25.6 0.5 0
26 0.5 0
26.4 0.5 0
26.8 0.5 0
27.2 0.5 0
27.6 0.5 0
28 0.5 0
28.4 0.5 0
28.8 0.5 0
29.2 0.5 0
29.6 0.5 0
30 0.5 0
30.4 0.5 0
30.8 0.5 0
31.2 0.5 0
31.6 0.5 0
32 0.5 0
32.4 0.5 0
32.8 0.5 0
33.2 0.5 0
33.6 0.5 0
34 0.5 0
34.4 0.5 0
34.8 0.5 0
35.2 0.5 0
35.6 0.5 0
36 0.5 0
36.4 0.5 0
36.8 0.5 0
37.2 0.5 0
37.6 0.5 0
38 0.5 0
38.4 0.5 0
38.8 0.5 0
39.2 0.5 0
39.6 0.5 0
40 0.5 0
40.4 0.5 0
0 0.6 0
0.4 0.6 0
0.8 0.6 0
1.2 0.6 0
1.6 0.6 0
2 0.6 0
2.4 0.6 0
2.8 0.6 0
3.2 0.6 0
3.6 0.6 0
4 0.6 0
4.4 0.6 0
4.8 0.6 0
5.2 0.6 0
5.6 0.6 0
6 0.6 0
6.4 0.6 0
6.8 0.6 0
7.2 0.6 0
7.6 0.6 0
8 0.6 0
8.4 0.6 0
8.8 0.6 0
9.2 0.6 0
9.6 0.6 0
10 0.6 0
10.4 0.6 0
10.8 0.6 0
11.2 0.6 0
11.6 0.6 0
12 0.6 0
12.4 0.6 0
12.8 0.6 0
13.2 0.6 0
13.6 0.6 0
14 0.6 0
14.4 0.6 0
14.8 0.6 0
15.2 0.6 0
15.6 0.6 0
16 0.6 0
16.4 0.6 0
16.8 0.6 0
17.2 0.6 0
17.6 0.6 0
18 0.6 0
18.4 0.6 0
18.8 0.6 0
19.2 0.6 0
19.6 0.6 0
20 0.6 0
20.4 0.6 0
20.8 0.6 0
21.2 0.6 0
21.6 0.6 0
22 0.6 0
22.4 0.6 0
22.8 0.6 0
23.2 0.6 0
23.6 0.6 0
24 0.6 0
24.4 0.6 0
24.8 0.6 0
25.2 0.6 0
25.6 0.6 0
26 0.6 0
26.4 0.6 0
26.8 0.6 0
27.2 0.6 0
27.6 0.6 0
28 0.6 0
28.4 0.6 0
28.8 0.6 0
29.2 0.6 0
29.6 0.6 0
30 0.6 0
30.4 0.6 0
30.8 0.6 0
31.2 0.6 0
31.6 0.6 0
32 0.6 0
32.4 0.6 0
32.8 0.6 0
33.2 0.6 0
33.6 0.6 0
34 0.6 0
34.4 0.6 0
34.8 0.6 0
35.2 0.6 0
35.6 0.6 0
36 0.6 0
36.4 0.6 0
36.8 0.6 0
37.2 0.6 0
37.6 0.6 0
38 0.6 0
38.4 0.6 0
38.8 0.6 0
39.2 0.6 0
39.6 0.6 0
40 0.6 0
40.4 0.6 0
0 0.7 0
0.4 0.7 0
0.8 0.7 0
1.2 0.7 0
1.6 0.7 0
2 0.7 0
2.4 0.7 0
2.8 0.7 0
3.2 0.7 0
3.6 0.7 0
4 0.7 0
4.4 0.7 0
4.8 0.7 0
5.2 0.7 0
5.6 0.7 0
6 0.7 0
6.4 0.7 0
6.8 0.7 0
7.2 0.7 0
7.6 0.7 0
8 0.7 0
8.4 0.7 0
8.8 0.7 0
9.2 0.7 0
9.6 0.7 0
10 0.7 0
10.4 0.7 0
10.8 0.7 0
11.2 0.7 0
11.6 0.7 0
12 0.7 0
12.4 0.7 0
12.8 0.7 0
13.2 0.7 0
13.6 0.7 0
14 0.7 0
14.4 0.7 0
14.8 0.7 0
15.2 0.7 0
15.6 0.7 0
16 0.7 0
16.4 0.7 0
16.8 0.7 0
17.2 0.7 0
17.6 0.7 0
18 0.7 0
18.4 0.7 0
18.8 0.7 0
19.2 0.7 0
19.6 0.7 0
20 0.7 0
20.4 0.7 0
20.8 0.7 0
21.2 0.7 0
21.6 0.7 0
22 0.7 0
22.4 0.7 0
22.8 0.7 0
23.2 0.7 0
23.6 0.7 0
24 0.7 0
24.4 0.7 0
24.8 0.7 0
25.2 0.7 0
25.6 0.7 0
26 0.7 0
26.4 0.7 0
26.8 0.7 0
27.2 0.7 0
27.6 0.7 0
28 0.7 0
28.4 0.7 0
28.8 0.7 0
29.2 0.7 0
29.6 0.7 0
30 0.7 0
30.4 0.7 0
30.8 0.7 0
31.2 0.7 0
31.6 0.7 0
32 0.7 0
32.4 0.7 0
32.8 0.7 0
33.2 0.7 0
33.6 0.7 0
34 0.7 0
34.4 0.7 0
34.8 0.7 0
35.2 0.7 0
35.6 0.7 0
36 0.7 0
36.4 0.7 0
36.8 0.7 0
37.2 0.7 0
37.6 0.7 0
38 0.7 0
38.4 0.7 0
38.8 0.7 0
39.2 0.7 0
39.6 0.7 0
40 0.7 0
40.4 0.7 0
0 0.8 0
0.4 0.8 0
0.8 0.8 0
1.2 0.8 0
1.6 0.8 0
2 0.8 0
2.4 0.8 0
2.8 0.8 0
3.2 0.8 0
3.6 0.8 0
4 0.8 0
4.4 0.8 0
4.8 0.8 0
5.2 0.8 0
5.6 0.8 0
6 0.8 0
6.4 0.8 0
6.8 0.8 0
7.2 0.8 0
7.6 0.8 0
8 0.8 0
8.4 0.8 0
8.8 0.8 0
9.2 0.8 0
9.6 0.8 0
10 0.8 0
10.4 0.8 0
10.8 0.8 0
11.2 0.8 0
11.6 0.8 0
12 0.8 0
12.4 0.8 0
12.8 0.8 0
13.2 0.8 0
13.6 0.8 0
14 0.8 0
14.4 0.8 0
14.8 0.8 0
15.2 0.8 0
15.6 0.8 0
16 0.8 0
16.4 0.8 0
16.8 0.8 0
17.2 0.8 0
17.6 0.8 0
18 0.8 0
18.4 0.8 0
18.8 0.8 0
19.2 0.8 0
19.6 0.8 0
20 0.8 0
20.4 0.8 0
20.8 0.8 0
21.2 0.8 0
21.6 0.8 0
22 0.8 0
22.4 0.8 0
22.8 0.8 0
23.2 0.8 0
23.6 0.8 0
24 0.8 0
24.4 0.8 0
24.8 0.8 0
25.2 0.8 0
25.6 0.8 0
26 0.8 0
26.4 0.8 0
26.8 0.8 0
27.2 0.8 0
27.6 0.8 0
28 0.8 0
28.4 0.8 0
28.8 0.8 0
29.2 0.8 0
29.6 0.8 0
30 0.8 0
30.4 0.8 0
30.8 0.8 0
31.2 0.8 0
31.6 0.8 0
32 0.8 0
32.4 0.8 0
32.8 0.8 0
33.2 0.8 0
33.6 0.8 0
34 0.8 0
34.4 0.8 0
34.8 0.8 0
35.2 0.8 0
35.6 0.8 0
36 0.8 0
36.4 0.8 0
36.8 0.8 0
37.2 0.8 0
37.6 0.8 0
38 0.8 0
38.4 0.8 0
38.8 0.8 0
39.2 0.8 0
39.6 0.8 0
40 0.8 0
40.4 0.8 0
0 0.9 0
0.4 0.9 0
0.8 0.9 0
1.2 0.9 0
1.6 0.9 0
2 0.9 0
2.4 0.9 0
2.8 0.9 0
3.2 0.9 0
3.6 0.9 0
4 0.9 0
4.4 0.9 0
4.8 0.9 0
5.2 0.9 0
5.6 0.9 0
6 0.9 0
6.4 0.9 0
6.8 0.9 0
7.2 0.9 0
7.6 0.9 0
8 0.9 0
8.4 0.9 0
8.8 0.9 0
9.2 0.9 0
9.6 0.9 0
10 0.9 0
10.4 0.9 0
10.8 0.9 0
11.2 0.9 0
11.6 0.9 0
12 0.9 0
12.4 0.9 0
12.8 0.9 0
13.2 0.9 0
13.6 0.9 0
14 0.9 0
14.4 0.9 0
14.8 0.9 0
15.2 0.9 0
15.6 0.9 0
16 0.9 0
16.4 0.9 0
16.8 0.9 0
17.2 0.9 0
17.6 0.9 0
18 0.9 0
18.4 0.9 0
18.8 0.9 0
19.2 0.9 0
19.6 0.9 0
20 0.9 0
20.4 0.9 0
20.8 0.9 0
21.2 0.9 0
21.6 0.9 0
22 0.9 0
22.4 0.9 0
22.8 0.9 0
23.2 0.9 0
23.6 0.9 0
24 0.9 0
24.4 0.9 0
24.8 0.9 0
25.2 0.9 0
25.6 0.9 0
26 0.9 0
26.4 0.9 0
26.8 0.9 0
27.2 0.9 0
27.6 0.9 0
28 0.9 0
28.4 0.9 0
28.8 0.9 0
29.2 0.9 0
29.6 0.9 0
30 0.9 0
30.4 0.9 0
30.8 0.9 0
31.2 0.9 0
31.6 0.9 0
32 0.9 0
32.4 0.9 0
32.8 0.9 0
33.2 0.9 0
33.6 0.9 0
34 0.9 0
34.4 0.9 0
34.8 0.9 0
35.2 0.9 0
35.6 0.9 0
36 0.9 0
36.4 0.9 0
36.8 0.9 0
37.2 0.9 0
37.6 0.9 0
38 0.9 0
38.4 0.9 0
38.8 0.9 0
39.2 0.9 0
39.6 0.9 0
40 0.9 0
40.4 0.9 0
0 1 0
0.4 1 0
0.8 1 0
1.2 1 0
1.6 1 0
2 1 0
2.4 1 0
2.8 1 0
3.2 1 0
3.6 1 0
4 1 0
4.4 1 0
4.8 1 0
5.2 1 0
5.6 1 0
6 1 0
6.4 1 0
6.8 1 0
7.2 1 0
7.6 1 0
8 1 0
8.4 1 0
8.8 1 0
9.2 1 0
9.6 1 0
10 1 0
10.4 1 0
10.8 1 0
11.2 1 0
11.6 1 0
12 1 0
12.4 1 0
12.8 1 0
13.2 1 0
13.6 1 0
14 1 0
14.4 1 0
14.8 1 0
15.2 1 0
15.6 1 0
16 1 0
16.4 1 0
16.8 1 0
17.2 1 0
17.6 1 0
18 1 0
18.4 1 0
18.8 1 0
19.2 1 0
19.6 1 0
20 1 0
20.4 1 0
20.8 1 0
21.2 1 0
21.6 1 0
22 1 0
22.4 1 0
22.8 1 0
23.2 1 0
23.6 1 0
24 1 0
24.4 1 0
24.8 1 0
25.2 1 0
25.6 1 0
26 1 0
26.4 1 0
26.8 1 0
27.2 1 0
27.6 1 0
28 1 0
28.4 1 0
28.8 1 0
29.2 1 0
29.6 1 0
30 1 0
30.4 1 0
30.8 1 0
31.2 1 0
31.6 1 0
32 1 0
32.4 1 0
32.8 1 0
33.2 1 0
33.6 1 0
34 1 0
34.4 1 0
34.8 1 0
35.2 1 0
35.6 1 0
36 1 0
36.4 1 0
36.8 1 0
37.2 1 0
37.6 1 0
38 1 0
38.4 1 0
38.8 1 0
39.2 1 0
39.6 1 0
40 1 0
40.4 1 0
0 1.1 0
0.4 1.1 0
0.8 1.1 0
1.2 1.1 0
1.6 1.1 0
2 1.1 0
2.4 1.1 0
2.8 1.1 0
3.2 1.1 0
3.6 1.1 0
4 1.1 0
4.4 1.1 0
4.8 1.1 0
5.2 1.1 0
5.6 1.1 0
6 1.1 0
6.4 1.1 0
6.8 1.1 0
7.2 1.1 0
7.6 1.1 0
8 1.1 0
8.4 1.1 0
8.8 1.1 0
9.2 1.1 0
9.6 1.1 0
10 1.1 0
10.4 1.1 0
10.8 1.1 0
11.2 1.1 0
11.6 1.1 0
12 1.1 0
12.4 1.1 0
12.8 1.1 0
13.2 1.1 0
13.6 1.1 0
14 1.1 0
14.4 1.1 0
14.8 1.1 0
15.2 1.1 0
15.6 1.1 0
16 1.1 0
16.4 1.1 0
16.8 1.1 0
17.2 1.1 0
17.6 1.1 0
18 1.1 0
18.4 1.1 0
18.8 1.1 0
19.2 1.1 0
19.6 1.1 0
20 1.1 0
20.4 1.1 0
20.8 1.1 0
21.2 1.1 0
21.6 1.1 0
22 1.1 0
22.4 1.1 0
22.8 1.1 0
23.2 1.1 0
23.6 1.1 0
24 1.1 0
24.4 1.1 0
24.8 1.1 0
25.2 1.1 0
25.6 1.1 0
26 1.1 0
26.4 1.1 0
26.8 1.1 0
27.2 1.1 0
27.6 1.1 0
28 1.1 0
28.4 1.1 0
28.8 1.1 0
29.2 1.1 0
29.6 1.1 0
30 1.1 0
30.4 1.1 0
30.8 1.1 0
31.2 1.1 0
31.6 1.1 0
32 1.1 0
32.4 1.1 0
32.8 1.1 0
33.2 1.1 0
33.6 1.1 0
34 1.1 0
34.4 1.1 0
34.8 1.1 0
35.2 1.1 0
35.6 1.1 0
36 1.1 0
36.4 1.1 0
36.8 1.1 0
37.2 1.1 0
37.6 1.1 0
38 1.1 0
38.4 1.1 0
38.8 1.1 0
39.2 1.1 0
39.6 1.1 0
40 1.1 0
40.4 1.1 0

POINT_DATA 1224

SCALARS phi double
LOOKUP_TABLE default
0.912323
1.08768
1.18798
1.23236
1.18827
1.02512
0.787089
0.548827
0.355431
0.216806
0.125302
0.0687222
0.0357684
0.0176646
0.00827898
0.00368423
0.00155806
0.000626853
0.000240243
8.78276e-05
3.06707e-05
1.02457e-05
3.27861e-06
1.00634e-06
2.96663e-07
8.40962e-08
2.29501e-08
6.03623e-09
1.53168e-09
3.75337e-10
8.89057e-11
2.0374e-11
4.52092e-12
9.72132e-13
2.02723e-13
4.10271e-14
8.06356e-15
1.54012e-15
2.86039e-16
5.16888e-17
9.09311e-18
1.55815e-18
2.60202e-19
4.23672e-20
6.72936e-21
1.04313e-21
1.57874e-22
2.33385e-23
3.3713e-24
4.76047e-25
6.57338e-26
8.8791e-27
1.17364e-27
1.51857e-28
1.92397e-29
2.38758e-30
2.90297e-31
3.45919e-32
4.04082e-33
4.62852e-34
5.19999e-35
5.73133e-36
6.19876e-37
6.58035e-38
6.85779e-39
7.01783e-40
7.05334e-41
6.96381e-42
6.75529e-43
6.43972e-44
6.03386e-45
5.55784e-46
5.03354e-47
4.48301e-48
3.92704e-49
3.38399e-50
2.86897e-51
2.39343e-52
1.96506e-53
1.58801e-54
1.26331e-55
9.89476e-57
7.63124e-58
5.79606e-59
4.33583e-60
3.19496e-61
2.31932e-62
1.65886e-63
1.16912e-64
8.11993e-66
5.55826e-67
3.75026e-68
2.4944e-69
1.63567e-70
1.05764e-71
6.74339e-73
4.24999e-74
2.63712e-75
1.67917e-76
1.01471e-77
9.48016e-79
9.48016e-79
0.912323
1.08768
1.18798
1.23236
1.18827
1.02512
0.787089
0.548827
0.355431
0.216806
0.125302
0.0687222
0.0357684
0.0176646
0.00827898
0.00368423
0.00155806
0.000626853
0.000240243
8.78276e-05
3.06707e-05
1.02457e-05
3.27861e-06
1.00634e-06
2.96663e-07
8.40962e-08
2.29501e-08
6.03623e-09
1.53168e-09
3.75337e-10
8.89057e-11
2.0374e-11
4.52092e-12
9.72132e-13
2.02723e-13
4.10271e-14
8.06356e-15
1.54012e-15
2.86039e-16
5.16888e-17
9.09311e-18
1.55815e-18
2.60202e-19
4.23672e-20
6.72936e-21
1.04313e-21
1.57874e-22
2.33385e-23
3.3713e-24
4.76047e-25
6.57338e-26
8.8791e-27
1.17364e-27
1.51857e-28
1.92397e-29
2.38758e-30
2.90297e-31
3.45919e-32
4.04082e-33
4.62852e-34
5.19999e-35
5.73133e-36
6.19876e-37
6.58035e-38
6.85779e-39
7.01783e-40
7.05334e-41
6.96381e-42
6.75529e-43
6.43972e-44
6.03386e-45
5.55784e-46
5.03354e-47
4.48301e-48
3.92704e-49
3.38399e-50
2.86897e-51
2.39343e-52
1.96506e-53
1.58801e-54
1.26331e-55
9.89476e-57
7.63124e-58
5.79606e-59
4.33583e-60
3.19496e-61
2.31932e-62
1.65886e-63
1.16912e-64
8.11993e-66
5.55826e-67
3.75026e-68
2.4944e-69
1.63567e-70
1.05764e-71
6.74339e-73
4.24999e-74
2.63712e-75
1.67917e-76
1.01471e-77
9.48016e-79
9.48016e-79
1.00215
0.99785
1.02618
1.06817
1.0893
1.04793
0.931369
0.762694
0.578564
0.409096
0.270854
0.168362
0.0984023
0.0541322
0.0280559
0.0137158
0.00633386
0.00276744
0.0011461
0.000450711
0.000168619
6.01215e-05
2.04655e-05
6.66189e-06
2.07699e-06
6.21107e-07
1.78399e-07
4.92803e-08
1.31079e-08
3.36098e-09
8.31642e-10
1.98784e-10
4.59423e-11
1.02759e-11
2.22622e-12
4.67529e-13
9.52509e-14
1.88392e-14
3.6198e-15
6.7611e-16
1.22837e-16
2.17208e-17
3.74024e-18
6.27526e-19
1.02634e-19
1.63718e-20
2.54825e-21
3.87189e-22
5.74547e-23
8.32963e-24
1.1803e-24
1.63528e-25
2.21604e-26
2.93833e-27
3.81333e-28
4.8454e-29
6.02988e-30
7.35142e-31
8.78296e-32
1.02858e-32
1.18107e-33
1.33005e-34
1.46934e-35
1.59273e-36
1.69444e-37
1.76959e-38
1.81458e-39
1.82737e-40
1.80765e-41
1.7568e-42
1.67777e-43
1.57481e-44
1.45306e-45
1.31819e-46
1.17592e-47
1.03172e-48
8.9042e-50
7.56038e-51
6.31646e-52
5.19337e-53
4.20271e-54
3.34793e-55
2.62571e-56
2.02767e-57
1.542e-58
1.15493e-59
8.52064e-61
6.19268e-62
4.43431e-63
3.12868e-64
2.17537e-65
1.49069e-66
1.00685e-67
6.7037e-69
4.4005e-70
2.84785e-71
1.81943e-72
1.14465e-73
7.23768e-75
4.41457e-76
3.31087e-77
3.31087e-77
1.01576
0.984244
0.962807
0.961136
0.969198
0.963224
0.920304
0.831739
0.705269
0.559106
0.413813
0.285857
0.184372
0.111139
0.062704
0.0331737
0.0164924
0.00772229
0.00341344
0.00142764
0.000566233
0.000213425
7.66027e-05
2.62307e-05
8.58444e-06
2.68945e-06
8.07855e-07
2.32993e-07
6.46059e-08
1.72451e-08
4.43641e-09
1.10115e-09
2.63972e-10
6.1177e-11
1.37193e-11
2.97965e-12
6.2725e-13
1.28083e-13
2.53886e-14
4.88853e-15
9.14947e-16
1.66557e-16
2.95077e-17
5.09048e-18
8.55592e-19
1.40179e-19
2.23984e-20
3.492e-21
5.31431e-22
7.89811e-23
1.14678e-23
1.62737e-24
2.25791e-25
3.06407e-26
4.06829e-27
5.2868e-28
6.72635e-29
8.38122e-30
1.02307e-30
1.22376e-31
1.43483e-32
1.64944e-33
1.85957e-34
2.05655e-35
2.23162e-36
2.3766e-37
2.48452e-38
2.55021e-39
2.57067e-40
2.54532e-41
2.476e-42
2.36675e-43
2.22346e-44
2.05333e-45
1.8643e-46
1.66446e-47
1.46152e-48
1.26234e-49
1.07265e-50
8.96839e-52
7.37917e-53
5.97585e-54
4.76377e-55
3.73869e-56
2.88909e-57
2.19853e-58
1.64773e-59
1.2164e-60
8.84607e-62
6.33811e-63
4.47459e-64
3.11299e-65
2.13441e-66
1.44244e-67
9.6093e-69
6.31061e-70
4.08741e-71
2.60815e-72
1.65036e-73
1.01567e-74
6.59317e-76
6.59317e-76
1.024
0.976002
0.918754
0.877015
0.853152
0.836942
0.811338
0.761065
0.679716
0.571919
0.450545
0.33121
0.226916
0.144903
0.0863463
0.0481049
0.0251148
0.0123193
0.0056924
0.00248417
0.00102639
0.000402433
0.000150059
5.33197e-05
1.80875e-05
5.86792e-06
1.82348e-06
5.43596e-07
1.55674e-07
4.28828e-08
1.13765e-08
2.90992e-09
7.18409e-10
1.71362e-10
3.95292e-11
8.82619e-12
1.90916e-12
4.00381e-13
8.14686e-14
1.60955e-14
3.08962e-15
5.76601e-16
1.04683e-16
1.84996e-17
3.18398e-18
5.33986e-19
8.7309e-20
1.3924e-20
2.16695e-21
3.29229e-22
4.88536e-23
7.08302e-24
1.00376e-24
1.3909e-25
1.88524e-26
2.5003e-27
3.24575e-28
4.12546e-29
5.13566e-30
6.26345e-31
7.48598e-32
8.77038e-33
1.00748e-33
1.13506e-34
1.25448e-35
1.36044e-36
1.44799e-37
1.51293e-38
1.55214e-39
1.56384e-40
1.54771e-41
1.50491e-42
1.43792e-43
1.35034e-44
1.24656e-45
1.13141e-46
1.0098e-47
8.86404e-49
7.65379e-50
6.50185e-51
5.43472e-52
4.47056e-53
3.61952e-54
2.88472e-55
2.2635e-56
1.74878e-57
1.33052e-58
9.97006e-60
7.35889e-61
5.35078e-62
3.83319e-63
2.70577e-64
1.88216e-65
1.29033e-66
8.71903e-68
5.80748e-69
3.81345e-70
2.4673e-71
1.57468e-72
9.79957e-74
6.03329e-75
6.03329e-75
1.11549
0.884515
0.754557
0.682303
0.643879
0.623591
0.60647
0.578465
0.530298
0.460507
0.375327
0.285587
0.20236
0.133453
0.0819831
0.0470018
0.0252091
0.0126837
0.00600356
0.0026807
0.00113216
0.00045336
0.000172521
6.25187e-05
2.16162e-05
7.14373e-06
2.26026e-06
6.85721e-07
1.9976e-07
5.59525e-08
1.50877e-08
3.92123e-09
9.83323e-10
2.38171e-10
5.57726e-11
1.26383e-11
2.77372e-12
5.90063e-13
1.21766e-13
2.4393e-14
4.7469e-15
8.97936e-16
1.65212e-16
2.95837e-17
5.15849e-18
8.76364e-19
1.4513e-19
2.34399e-20
3.69385e-21
5.68227e-22
8.53624e-23
1.25283e-23
1.79708e-24
2.52031e-25
3.45709e-26
4.63966e-27
6.09432e-28
7.83729e-29
9.87058e-30
1.21782e-30
1.47236e-31
1.74483e-32
2.02729e-33
2.31002e-34
2.582e-35
2.83169e-36
3.04778e-37
3.22007e-38
3.34032e-39
3.40283e-40
3.40497e-41
3.34726e-42
3.23336e-43
3.06963e-44
2.86461e-45
2.62824e-46
2.37116e-47
2.10389e-48
1.8362e-49
1.5766e-50
1.33196e-51
1.10737e-52
9.0612e-54
7.29851e-55
5.78754e-56
4.51881e-57
3.47438e-58
2.63093e-59
1.96233e-60
1.44183e-61
1.04374e-62
7.44467e-64
5.23271e-65
3.62477e-66
2.47483e-67
1.66558e-68
1.10492e-69
7.22354e-71
4.65069e-72
2.92331e-73
1.78523e-74
1.78523e-74
-0.101707
0.101707
0.203931
0.258346
0.291293
0.313851
0.327682
0.329423
0.31512
0.283748
0.238653
0.186618
0.135385
0.0911055
0.0569436
0.0331332
0.0179989
0.0091569
0.0043766
0.00197116
0.000838939
0.000338293
0.000129551
4.722e-05
1.64138e-05
5.45118e-06
1.73263e-06
5.2788e-07
1.54388e-07
4.3404e-08
1.17445e-08
3.06228e-09
7.70271e-10
1.87104e-10
4.3933e-11
9.98085e-12
2.19579e-12
4.68186e-13
9.68247e-14
1.94363e-14
3.78968e-15
7.1819e-16
1.32372e-16
2.37427e-17
4.14655e-18
7.05507e-19
1.17003e-19
1.89228e-20
2.98587e-21
4.59882e-22
6.91673e-23
1.01627e-23
1.4593e-24
2.04866e-25
2.81282e-26
3.77843e-27
4.96736e-28
6.39325e-29
8.05815e-30
9.94938e-31
1.20373e-31
1.42742e-32
1.65953e-33
1.89206e-34
2.116e-35
2.32182e-36
2.5002e-37
2.64273e-38
2.74256e-39
2.79498e-40
2.79773e-41
2.75122e-42
2.65841e-43
2.52448e-44
2.35645e-45
2.16249e-46
1.95135e-47
1.73169e-48
1.51158e-49
1.29803e-50
1.09672e-51
9.11857e-53
7.46179e-54
6.01039e-55
4.76612e-56
3.72123e-57
2.86103e-58
2.16634e-59
1.61567e-60
1.187e-61
8.59157e-63
6.12723e-64
4.30599e-65
2.98226e-66
2.03573e-67
1.36975e-68
9.08448e-70
5.9375e-71
3.82164e-72
2.40144e-73
1.4662e-74
1.4662e-74
-0.00932315
0.00932315
0.0398793
0.0691622
0.094971
0.117383
0.135379
0.14644
0.14786
0.138507
0.119836
0.0955516
0.0702043
0.0475993
0.0298592
0.0173871
0.00943226
0.0047844
0.00227714
0.00102031
0.000431686
0.000172938
6.57637e-05
2.37927e-05
8.20658e-06
2.70376e-06
8.52354e-07
2.57523e-07
7.46799e-08
2.08154e-08
5.58367e-09
1.44321e-09
3.59835e-10
8.66363e-11
2.01627e-11
4.53995e-12
9.89897e-13
2.09182e-13
4.28736e-14
8.52923e-15
1.64811e-15
3.09531e-16
5.65378e-17
1.00496e-17
1.73931e-18
2.93267e-19
4.81979e-20
7.72476e-21
1.20792e-21
1.84366e-22
2.7479e-23
4.00106e-24
5.69346e-25
7.92076e-26
1.07772e-26
1.43463e-27
1.86905e-28
2.38387e-29
2.97758e-30
3.64327e-31
4.36809e-32
5.13314e-33
5.91403e-34
6.68195e-35
7.40546e-36
8.05256e-37
8.5931e-38
9.00114e-39
9.25702e-40
9.34894e-41
9.27386e-42
9.03754e-43
8.65398e-44
8.14399e-45
7.53344e-46
6.85108e-47
6.12645e-48
5.38783e-49
4.66062e-50
3.96611e-51
3.32081e-52
2.73618e-53
2.21885e-54
1.77115e-55
1.39182e-56
1.07689e-57
8.20484e-59
6.15658e-60
4.55018e-61
3.31275e-62
2.37614e-63
1.67928e-64
1.16948e-65
8.02641e-67
5.42948e-68
3.62019e-69
2.3796e-70
1.54109e-71
9.84723e-73
6.13325e-74
3.79256e-75
3.79256e-75
-0.000491556
0.000491556
0.00622832
0.0147709
0.0249988
0.0360956
0.0466826
0.0547064
0.0581646
0.0561042
0.0491497
0.0392031
0.0285729
0.0191108
0.0117839
0.0067296
0.00357535
0.00177456
0.000825992
0.00036182
0.00014963
5.85857e-05
2.1774e-05
7.69965e-06
2.59607e-06
8.36209e-07
2.57774e-07
7.61722e-08
2.16093e-08
5.89357e-09
1.54729e-09
3.91507e-10
9.55817e-11
2.25389e-11
5.13855e-12
1.13371e-12
2.42267e-13
5.01852e-14
1.00851e-14
1.96756e-15
3.72923e-16
6.87129e-17
1.23157e-17
2.14849e-18
3.65014e-19
6.04253e-20
9.75178e-21
1.53502e-21
2.35785e-22
3.53571e-23
5.17828e-24
7.40997e-25
1.03643e-25
1.41749e-26
1.8963e-27
2.48232e-28
3.18062e-29
3.99033e-30
4.90322e-31
5.9028e-32
6.96406e-33
8.05403e-34
9.13326e-35
1.01581e-35
1.10835e-36
1.18665e-37
1.24696e-38
1.28636e-39
1.30301e-40
1.29626e-41
1.26675e-42
1.21626e-43
1.14757e-44
1.06421e-45
9.70185e-47
8.69623e-48
7.66533e-49
6.64545e-50
5.66736e-51
4.75517e-52
3.92596e-53
3.18993e-54
2.55115e-55
2.00848e-56
1.5568e-57
1.1882e-58
8.93088e-60
6.61146e-61
4.82116e-62
3.46343e-63
2.45139e-64
1.70969e-65
1.17508e-66
7.95988e-68
5.31482e-69
3.49807e-70
2.27066e-71
1.45189e-72
9.21125e-74
5.67825e-75
3.72149e-76
3.72149e-76
3.7013e-05
-3.7013e-05
0.00078701
0.00283284
0.00628558
0.010884
0.0156892
0.0193701
0.0208497
0.0198317
0.0168553
0.0129217
0.0090077
0.00575023
0.00338243
0.0018435
0.00093555
0.000444027
0.00019787
8.30812e-05
3.29722e-05
1.24034e-05
4.43395e-06
1.5097e-06
4.90618e-07
1.52467e-07
4.53874e-08
1.29633e-08
3.55753e-09
9.39342e-10
2.38938e-10
5.86195e-11
1.38856e-11
3.17906e-12
7.04134e-13
1.51017e-13
3.13891e-14
6.32784e-15
1.23818e-15
2.35329e-16
4.34727e-17
7.81064e-18
1.36568e-18
2.32514e-19
3.8568e-20
6.23603e-21
9.83349e-22
1.51297e-22
2.27234e-23
3.33291e-24
4.77596e-25
6.68892e-26
9.15955e-27
1.2268e-27
1.6077e-28
2.06212e-29
2.58966e-30
3.1851e-31
3.83783e-32
4.53165e-33
5.2451e-34
5.95244e-35
6.62509e-36
7.23355e-37
7.7496e-38
8.14845e-39
8.4108e-40
8.52432e-41
8.48464e-42
8.29558e-43
7.96867e-44
7.52198e-45
6.97859e-46
6.36457e-47
5.70705e-48
5.03233e-49
4.36428e-50
3.72316e-51
3.12487e-52
2.58071e-53
2.09747e-54
1.67789e-55
1.32131e-56
1.02441e-57
7.82041e-59
5.8793e-60
4.35328e-61
3.17507e-62
2.28132e-63
1.61498e-64
1.12652e-65
7.74382e-67
5.24636e-68
3.50342e-69
2.30637e-70
1.49677e-71
9.58903e-73
6.04829e-74
3.83744e-75
2.34477e-76
1.78175e-77
1.78175e-77
2.08733e-05
-2.08733e-05
9.23537e-05
0.000859984
0.00261147
0.00497143
0.00708528
0.00822353
0.00813769
0.00705568
0.00545685
0.0038131
0.00243113
0.00142541
0.000773547
0.000390678
0.000184493
8.17995e-05
3.41741e-05
1.34962e-05
5.0528e-06
1.79794e-06
6.09457e-07
1.97215e-07
6.10367e-08
1.80986e-08
5.14983e-09
1.4082e-09
3.7055e-10
9.39462e-11
2.29756e-11
5.42599e-12
1.23867e-12
2.73593e-13
5.85217e-14
1.21326e-14
2.43983e-15
4.76273e-16
9.03132e-17
1.66469e-17
2.98453e-18
5.20766e-19
8.84869e-20
1.46494e-20
2.36424e-21
3.72141e-22
5.71572e-23
8.56993e-24
1.25491e-24
1.79538e-25
2.5106e-26
3.43273e-27
4.59095e-28
6.0078e-29
7.69526e-30
9.65083e-31
1.18543e-31
1.42653e-32
1.68232e-33
1.94482e-34
2.20447e-35
2.45075e-36
2.67281e-37
2.86033e-38
3.00431e-39
3.09777e-40
3.13636e-41
3.11862e-42
3.04613e-43
2.92328e-44
2.75682e-45
2.55531e-46
2.32838e-47
2.08599e-48
1.83779e-49
1.59247e-50
1.3574e-51
1.13835e-52
9.39369e-54
7.62876e-55
6.09803e-56
4.79847e-57
3.71751e-58
2.83591e-59
2.13049e-60
1.5764e-61
1.14896e-62
8.24984e-64
5.8363e-65
4.06845e-66
2.7949e-67
1.89232e-68
1.26288e-69
8.30826e-71
5.38934e-72
3.44678e-73
2.17895e-74
1.35589e-75
8.66561e-77
5.24501e-78
4.97322e-79
4.97322e-79
2.08733e-05
-2.08733e-05
9.23537e-05
0.000859984
0.00261147
0.00497143
0.00708528
0.00822353
0.00813769
0.00705568
0.00545685
0.0038131
0.00243113
0.00142541
0.000773547
0.000390678
0.000184493
8.17995e-05
3.41741e-05
1.34962e-05
5.0528e-06
1.79794e-06
6.09457e-07
1.97215e-07
6.10367e-08
1.80986e-08
5.14983e-09
1.4082e-09
3.7055e-10
9.39462e-11
2.29756e-11
5.42599e-12
1.23867e-12
2.73593e-13
5.85217e-14
1.21326e-14
2.43983e-15
4.76273e-16
9.03132e-17
1.66469e-17
2.98453e-18
5.20766e-19
8.84869e-20
1.46494e-20
2.36424e-21
3.72141e-22
5.71572e-23
8.56993e-24
1.25491e-24
1.79538e-25
2.5106e-26
3.43273e-27
4.59095e-28
6.0078e-29
7.69526e-30
9.65083e-31
1.18543e-31
1.42653e-32
1.68232e-33
1.94482e-34
2.20447e-35
2.45075e-36
2.67281e-37
2.86033e-38
3.00431e-39
3.09777e-40
3.13636e-41
3.11862e-42
3.04613e-43
2.92328e-44
2.75682e-45
2.55531e-46
2.32838e-47
2.08599e-48
1.83779e-49
1.59247e-50
1.3574e-51
1.13835e-52
9.39369e-54
7.62876e-55
6.09803e-56
4.79847e-57
3.71751e-58
2.83591e-59
2.13049e-60
1.5764e-61
1.14896e-62
8.24984e-64
5.8363e-65
4.06845e-66
2.7949e-67
1.89232e-68
1.26288e-69
8.30826e-71
5.38934e-72
3.44678e-73
2.17895e-74
1.35589e-75
8.66561e-77
5.24501e-78
4.97322e-79
4.97322e-79
