# vtk DataFile Version 2.0
FlowField
ASCII
DATASET STRUCTURED_GRID
DIMENSIONS 102 13 1 
POINTS 1326 double
0 0 0
0.3 0 0
0.6 0 0
0.9 0 0
1.2 0 0
1.5 0 0
1.8 0 0
2.1 0 0
2.4 0 0
2.7 0 0
3 0 0
3.3 0 0
3.6 0 0
3.9 0 0
4.2 0 0
4.5 0 0
4.8 0 0
5.1 0 0
5.4 0 0
5.7 0 0
6 0 0
6.3 0 0
6.6 0 0
6.9 0 0
7.2 0 0
7.5 0 0
7.8 0 0
8.1 0 0
8.4 0 0
8.7 0 0
9 0 0
9.3 0 0
9.6 0 0
9.9 0 0
10.2 0 0
10.5 0 0
10.8 0 0
11.1 0 0
11.4 0 0
11.7 0 0
12 0 0
12.3 0 0
12.6 0 0
12.9 0 0
13.2 0 0
13.5 0 0
13.8 0 0
14.1 0 0
14.4 0 0
14.7 0 0
15 0 0
15.3 0 0
15.6 0 0
15.9 0 0
16.2 0 0
16.5 0 0
16.8 0 0
17.1 0 0
17.4 0 0
17.7 0 0
18 0 0
18.3 0 0
18.6 0 0
18.9 0 0
19.2 0 0
19.5 0 0
19.8 0 0
20.1 0 0
20.4 0 0
20.7 0 0
21 0 0
21.3 0 0
21.6 0 0
21.9 0 0
22.2 0 0
22.5 0 0
22.8 0 0
23.1 0 0
23.4 0 0
23.7 0 0
24 0 0
24.3 0 0
24.6 0 0
24.9 0 0
25.2 0 0
25.5 0 0
25.8 0 0
26.1 0 0
26.4 0 0
26.7 0 0
27 0 0
27.3 0 0
27.6 0 0
27.9 0 0
28.2 0 0
28.5 0 0
28.8 0 0
29.1 0 0
29.4 0 0
29.7 0 0
30 0 0
30.3 0 0
0 0.1 0
0.3 0.1 0
0.6 0.1 0
0.9 0.1 0
1.2 0.1 0
1.5 0.1 0
1.8 0.1 0
2.1 0.1 0
2.4 0.1 0
2.7 0.1 0
3 0.1 0
3.3 0.1 0
3.6 0.1 0
3.9 0.1 0
4.2 0.1 0
4.5 0.1 0
4.8 0.1 0
5.1 0.1 0
5.4 0.1 0
5.7 0.1 0
6 0.1 0
6.3 0.1 0
6.6 0.1 0
6.9 0.1 0
7.2 0.1 0
7.5 0.1 0
7.8 0.1 0
8.1 0.1 0
8.4 0.1 0
8.7 0.1 0
9 0.1 0
9.3 0.1 0
9.6 0.1 0
9.9 0.1 0
10.2 0.1 0
10.5 0.1 0
10.8 0.1 0
11.1 0.1 0
11.4 0.1 0
11.7 0.1 0
12 0.1 0
12.3 0.1 0
12.6 0.1 0
12.9 0.1 0
13.2 0.1 0
13.5 0.1 0
13.8 0.1 0
14.1 0.1 0
14.4 0.1 0
14.7 0.1 0
15 0.1 0
15.3 0.1 0
15.6 0.1 0
15.9 0.1 0
16.2 0.1 0
16.5 0.1 0
16.8 0.1 0
17.1 0.1 0
17.4 0.1 0
17.7 0.1 0
18 0.1 0
18.3 0.1 0
18.6 0.1 0
18.9 0.1 0
19.2 0.1 0
19.5 0.1 0
19.8 0.1 0
20.1 0.1 0
20.4 0.1 0
20.7 0.1 0
21 0.1 0
21.3 0.1 0
21.6 0.1 0
21.9 0.1 0
22.2 0.1 0
22.5 0.1 0
22.8 0.1 0
23.1 0.1 0
23.4 0.1 0
23.7 0.1 0
24 0.1 0
24.3 0.1 0
24.6 0.1 0
24.9 0.1 0
25.2 0.1 0
25.5 0.1 0
25.8 0.1 0
26.1 0.1 0
26.4 0.1 0
26.7 0.1 0
27 0.1 0
27.3 0.1 0
27.6 0.1 0
27.9 0.1 0
28.2 0.1 0
28.5 0.1 0
28.8 0.1 0
29.1 0.1 0
29.4 0.1 0
29.7 0.1 0
30 0.1 0
30.3 0.1 0
0 0.2 0
0.3 0.2 0
0.6 0.2 0
0.9 0.2 0
1.2 0.2 0
1.5 0.2 0
1.8 0.2 0
2.1 0.2 0
2.4 0.2 0
2.7 0.2 0
3 0.2 0
3.3 0.2 0
3.6 0.2 0
3.9 0.2 0
4.2 0.2 0
4.5 0.2 0
4.8 0.2 0
5.1 0.2 0
5.4 0.2 0
5.7 0.2 0
6 0.2 0
6.3 0.2 0
6.6 0.2 0
6.9 0.2 0
7.2 0.2 0
7.5 0.2 0
7.8 0.2 0
8.1 0.2 0
8.4 0.2 0
8.7 0.2 0
9 0.2 0
9.3 0.2 0
9.6 0.2 0
9.9 0.2 0
10.2 0.2 0
10.5 0.2 0
10.8 0.2 0
11.1 0.2 0
11.4 0.2 0
11.7 0.2 0
12 0.2 0
12.3 0.2 0
12.6 0.2 0
12.9 0.2 0
13.2 0.2 0
13.5 0.2 0
13.8 0.2 0
14.1 0.2 0
14.4 0.2 0
14.7 0.2 0
15 0.2 0
15.3 0.2 0
15.6 0.2 0
15.9 0.2 0
16.2 0.2 0
16.5 0.2 0
16.8 0.2 0
17.1 0.2 0
17.4 0.2 0
17.7 0.2 0
18 0.2 0
18.3 0.2 0
18.6 0.2 0
18.9 0.2 0
19.2 0.2 0
19.5 0.2 0
19.8 0.2 0
20.1 0.2 0
20.4 0.2 0
20.7 0.2 0
21 0.2 0
21.3 0.2 0
21.6 0.2 0
21.9 0.2 0
22.2 0.2 0
22.5 0.2 0
22.8 0.2 0
23.1 0.2 0
23.4 0.2 0
23.7 0.2 0
24 0.2 0
24.3 0.2 0
24.6 0.2 0
24.9 0.2 0
25.2 0.2 0
25.5 0.2 0
25.8 0.2 0
26.1 0.2 0
26.4 0.2 0
26.7 0.2 0
27 0.2 0
27.3 0.2 0
27.6 0.2 0
27.9 0.2 0
28.2 0.2 0
28.5 0.2 0
28.8 0.2 0
29.1 0.2 0
29.4 0.2 0
29.7 0.2 0
30 0.2 0
30.3 0.2 0
0 0.3 0
0.3 0.3 0
0.6 0.3 0
0.9 0.3 0
1.2 0.3 0
1.5 0.3 0
1.8 0.3 0
2.1 0.3 0
2.4 0.3 0
2.7 0.3 0
3 0.3 0
3.3 0.3 0
3.6 0.3 0
3.9 0.3 0
4.2 0.3 0
4.5 0.3 0
4.8 0.3 0
5.1 0.3 0
5.4 0.3 0
5.7 0.3 0
6 0.3 0
6.3 0.3 0
6.6 0.3 0
6.9 0.3 0
7.2 0.3 0
7.5 0.3 0
7.8 0.3 0
8.1 0.3 0
8.4 0.3 0
8.7 0.3 0
9 0.3 0
9.3 0.3 0
9.6 0.3 0
9.9 0.3 0
10.2 0.3 0
10.5 0.3 0
10.8 0.3 0
11.1 0.3 0
11.4 0.3 0
11.7 0.3 0
12 0.3 0
12.3 0.3 0
12.6 0.3 0
12.9 0.3 0
13.2 0.3 0
13.5 0.3 0
13.8 0.3 0
14.1 0.3 0
14.4 0.3 0
14.7 0.3 0
15 0.3 0
15.3 0.3 0
15.6 0.3 0
15.9 0.3 0
16.2 0.3 0
16.5 0.3 0
16.8 0.3 0
17.1 0.3 0
17.4 0.3 0
17.7 0.3 0
18 0.3 0
18.3 0.3 0
18.6 0.3 0
18.9 0.3 0
19.2 0.3 0
19.5 0.3 0
19.8 0.3 0
20.1 0.3 0
20.4 0.3 0
20.7 0.3 0
21 0.3 0
21.3 0.3 0
21.6 0.3 0
21.9 0.3 0
22.2 0.3 0
22.5 0.3 0
22.8 0.3 0
23.1 0.3 0
23.4 0.3 0
23.7 0.3 0
24 0.3 0
24.3 0.3 0
24.6 0.3 0
24.9 0.3 0
25.2 0.3 0
25.5 0.3 0
25.8 0.3 0
26.1 0.3 0
26.4 0.3 0
26.7 0.3 0
27 0.3 0
27.3 0.3 0
27.6 0.3 0
27.9 0.3 0
28.2 0.3 0
28.5 0.3 0
28.8 0.3 0
29.1 0.3 0
29.4 0.3 0
29.7 0.3 0
30 0.3 0
30.3 0.3 0
0 0.4 0
0.3 0.4 0
0.6 0.4 0
0.9 0.4 0
1.2 0.4 0
1.5 0.4 0
1.8 0.4 0
2.1 0.4 0
2.4 0.4 0
2.7 0.4 0
3 0.4 0
3.3 0.4 0
3.6 0.4 0
3.9 0.4 0
4.2 0.4 0
4.5 0.4 0
4.8 0.4 0
5.1 0.4 0
5.4 0.4 0
5.7 0.4 0
6 0.4 0
6.3 0.4 0
6.6 0.4 0
6.9 0.4 0
7.2 0.4 0
7.5 0.4 0
7.8 0.4 0
8.1 0.4 0
8.4 0.4 0
8.7 0.4 0
9 0.4 0
9.3 0.4 0
9.6 0.4 0
9.9 0.4 0
10.2 0.4 0
10.5 0.4 0
10.8 0.4 0
11.1 0.4 0
11.4 0.4 0
11.7 0.4 0
12 0.4 0
12.3 0.4 0
12.6 0.4 0
12.9 0.4 0
13.2 0.4 0
13.5 0.4 0
13.8 0.4 0
14.1 0.4 0
14.4 0.4 0
14.7 0.4 0
15 0.4 0
15.3 0.4 0
15.6 0.4 0
15.9 0.4 0
16.2 0.4 0
16.5 0.4 0
16.8 0.4 0
17.1 0.4 0
17.4 0.4 0
17.7 0.4 0
18 0.4 0
18.3 0.4 0
18.6 0.4 0
18.9 0.4 0
19.2 0.4 0
19.5 0.4 0
19.8 0.4 0
20.1 0.4 0
20.4 0.4 0
20.7 0.4 0
21 0.4 0
21.3 0.4 0
21.6 0.4 0
21.9 0.4 0
22.2 0.4 0
22.5 0.4 0
22.8 0.4 0
23.1 0.4 0
23.4 0.4 0
23.7 0.4 0
24 0.4 0
24.3 0.4 0
24.6 0.4 0
24.9 0.4 0
25.2 0.4 0
25.5 0.4 0
25.8 0.4 0
26.1 0.4 0
26.4 0.4 0
26.7 0.4 0
27 0.4 0
27.3 0.4 0
27.6 0.4 0
27.9 0.4 0
28.2 0.4 0
28.5 0.4 0
28.8 0.4 0
29.1 0.4 0
29.4 0.4 0
29.7 0.4 0
30 0.4 0
30.3 0.4 0
0 0.5 0
0.3 0.5 0
0.6 0.5 0
0.9 0.5 0
1.2 0.5 0
1.5 0.5 0
1.8 0.5 0
2.1 0.5 0
2.4 0.5 0
2.7 0.5 0
3 0.5 0
3.3 0.5 0
3.6 0.5 0
3.9 0.5 0
4.2 0.5 0
4.5 0.5 0
4.8 0.5 0
5.1 0.5 0
5.4 0.5 0
5.7 0.5 0
6 0.5 0
6.3 0.5 0
6.6 0.5 0
6.9 0.5 0
7.2 0.5 0
7.5 0.5 0
7.8 0.5 0
8.1 0.5 0
8.4 0.5 0
8.7 0.5 0
9 0.5 0
9.3 0.5 0
9.6 0.5 0
9.9 0.5 0
10.2 0.5 0
10.5 0.5 0
10.8 0.5 0
11.1 0.5 0
11.4 0.5 0
11.7 0.5 0
12 0.5 0
12.3 0.5 0
12.6 0.5 0
12.9 0.5 0
13.2 0.5 0
13.5 0.5 0
13.8 0.5 0
14.1 0.5 0
14.4 0.5 0
14.7 0.5 0
15 0.5 0
15.3 0.5 0
15.6 0.5 0
15.9 0.5 0
16.2 0.5 0
16.5 0.5 0
16.8 0.5 0
17.1 0.5 0
17.4 0.5 0
17.7 0.5 0
18 0.5 0
18.3 0.5 0
18.6 0.5 0
18.9 0.5 0
19.2 0.5 0
19.5 0.5 0
19.8 0.5 0
20.1 0.5 0
20.4 0.5 0
20.7 0.5 0
21 0.5 0
21.3 0.5 0
21.6 0.5 0
21.9 0.5 0
22.2 0.5 0
22.5 0.5 0
22.8 0.5 0
23.1 0.5 0
23.4 0.5 0
23.7 0.5 0
24 0.5 0
24.3 0.5 0
24.6 0.5 0
24.9 0.5 0
25.2 0.5 0
25.5 0.5 0
25.8 0.5 0
26.1 0.5 0
26.4 0.5 0
26.7 0.5 0
27 0.5 0
27.3 0.5 0
27.6 0.5 0
27.9 0.5 0
28.2 0.5 0
28.5 0.5 0
28.8 0.5 0
29.1 0.5 0
29.4 0.5 0
29.7 0.5 0
30 0.5 0
30.3 0.5 0
0 0.6 0
0.3 0.6 0
0.6 0.6 0
0.9 0.6 0
1.2 0.6 0
1.5 0.6 0
1.8 0.6 0
2.1 0.6 0
2.4 0.6 0
2.7 0.6 0
3 0.6 0
3.3 0.6 0
3.6 0.6 0
3.9 0.6 0
4.2 0.6 0
4.5 0.6 0
4.8 0.6 0
5.1 0.6 0
5.4 0.6 0
5.7 0.6 0
6 0.6 0
6.3 0.6 0
6.6 0.6 0
6.9 0.6 0
7.2 0.6 0
7.5 0.6 0
7.8 0.6 0
8.1 0.6 0
8.4 0.6 0
8.7 0.6 0
9 0.6 0
9.3 0.6 0
9.6 0.6 0
9.9 0.6 0
10.2 0.6 0
10.5 0.6 0
10.8 0.6 0
11.1 0.6 0
11.4 0.6 0
11.7 0.6 0
12 0.6 0
12.3 0.6 0
12.6 0.6 0
12.9 0.6 0
13.2 0.6 0
13.5 0.6 0
13.8 0.6 0
14.1 0.6 0
14.4 0.6 0
14.7 0.6 0
15 0.6 0
15.3 0.6 0
15.6 0.6 0
15.9 0.6 0
16.2 0.6 0
16.5 0.6 0
16.8 0.6 0
17.1 0.6 0
17.4 0.6 0
17.7 0.6 0
18 0.6 0
18.3 0.6 0
18.6 0.6 0
18.9 0.6 0
19.2 0.6 0
19.5 0.6 0
19.8 0.6 0
20.1 0.6 0
20.4 0.6 0
20.7 0.6 0
21 0.6 0
21.3 0.6 0
21.6 0.6 0
21.9 0.6 0
22.2 0.6 0
22.5 0.6 0
22.8 0.6 0
23.1 0.6 0
23.4 0.6 0
23.7 0.6 0
24 0.6 0
24.3 0.6 0
24.6 0.6 0
24.9 0.6 0
25.2 0.6 0
25.5 0.6 0
25.8 0.6 0
26.1 0.6 0
26.4 0.6 0
26.7 0.6 0
27 0.6 0
27.3 0.6 0
27.6 0.6 0
27.9 0.6 0
28.2 0.6 0
28.5 0.6 0
28.8 0.6 0
29.1 0.6 0
29.4 0.6 0
29.7 0.6 0
30 0.6 0
30.3 0.6 0
0 0.7 0
0.3 0.7 0
0.6 0.7 0
0.9 0.7 0
1.2 0.7 0
1.5 0.7 0
1.8 0.7 0
2.1 0.7 0
2.4 0.7 0
2.7 0.7 0
3 0.7 0
3.3 0.7 0
3.6 0.7 0
3.9 0.7 0
4.2 0.7 0
4.5 0.7 0
4.8 0.7 0
5.1 0.7 0
5.4 0.7 0
5.7 0.7 0
6 0.7 0
6.3 0.7 0
6.6 0.7 0
6.9 0.7 0
7.2 0.7 0
7.5 0.7 0
7.8 0.7 0
8.1 0.7 0
8.4 0.7 0
8.7 0.7 0
9 0.7 0
9.3 0.7 0
9.6 0.7 0
9.9 0.7 0
10.2 0.7 0
10.5 0.7 0
10.8 0.7 0
11.1 0.7 0
11.4 0.7 0
11.7 0.7 0
12 0.7 0
12.3 0.7 0
12.6 0.7 0
12.9 0.7 0
13.2 0.7 0
13.5 0.7 0
13.8 0.7 0
14.1 0.7 0
14.4 0.7 0
14.7 0.7 0
15 0.7 0
15.3 0.7 0
15.6 0.7 0
15.9 0.7 0
16.2 0.7 0
16.5 0.7 0
16.8 0.7 0
17.1 0.7 0
17.4 0.7 0
17.7 0.7 0
18 0.7 0
18.3 0.7 0
18.6 0.7 0
18.9 0.7 0
19.2 0.7 0
19.5 0.7 0
19.8 0.7 0
20.1 0.7 0
20.4 0.7 0
20.7 0.7 0
21 0.7 0
21.3 0.7 0
21.6 0.7 0
21.9 0.7 0
22.2 0.7 0
22.5 0.7 0
22.8 0.7 0
23.1 0.7 0
23.4 0.7 0
23.7 0.7 0
24 0.7 0
24.3 0.7 0
24.6 0.7 0
24.9 0.7 0
25.2 0.7 0
25.5 0.7 0
25.8 0.7 0
26.1 0.7 0
26.4 0.7 0
26.7 0.7 0
27 0.7 0
27.3 0.7 0
27.6 0.7 0
27.9 0.7 0
28.2 0.7 0
28.5 0.7 0
28.8 0.7 0
29.1 0.7 0
29.4 0.7 0
29.7 0.7 0
30 0.7 0
30.3 0.7 0
0 0.8 0
0.3 0.8 0
0.6 0.8 0
0.9 0.8 0
1.2 0.8 0
1.5 0.8 0
1.8 0.8 0
2.1 0.8 0
2.4 0.8 0
2.7 0.8 0
3 0.8 0
3.3 0.8 0
3.6 0.8 0
3.9 0.8 0
4.2 0.8 0
4.5 0.8 0
4.8 0.8 0
5.1 0.8 0
5.4 0.8 0
5.7 0.8 0
6 0.8 0
6.3 0.8 0
6.6 0.8 0
6.9 0.8 0
7.2 0.8 0
7.5 0.8 0
7.8 0.8 0
8.1 0.8 0
8.4 0.8 0
8.7 0.8 0
9 0.8 0
9.3 0.8 0
9.6 0.8 0
9.9 0.8 0
10.2 0.8 0
10.5 0.8 0
10.8 0.8 0
11.1 0.8 0
11.4 0.8 0
11.7 0.8 0
12 0.8 0
12.3 0.8 0
12.6 0.8 0
12.9 0.8 0
13.2 0.8 0
13.5 0.8 0
13.8 0.8 0
14.1 0.8 0
14.4 0.8 0
14.7 0.8 0
15 0.8 0
15.3 0.8 0
15.6 0.8 0
15.9 0.8 0
16.2 0.8 0
16.5 0.8 0
16.8 0.8 0
17.1 0.8 0
17.4 0.8 0
17.7 0.8 0
18 0.8 0
18.3 0.8 0
18.6 0.8 0
18.9 0.8 0
19.2 0.8 0
19.5 0.8 0
19.8 0.8 0
20.1 0.8 0
20.4 0.8 0
20.7 0.8 0
21 0.8 0
21.3 0.8 0
21.6 0.8 0
21.9 0.8 0
22.2 0.8 0
22.5 0.8 0
22.8 0.8 0
23.1 0.8 0
23.4 0.8 0
23.7 0.8 0
24 0.8 0
24.3 0.8 0
24.6 0.8 0
24.9 0.8 0
25.2 0.8 0
25.5 0.8 0
25.8 0.8 0
26.1 0.8 0
26.4 0.8 0
26.7 0.8 0
27 0.8 0
27.3 0.8 0
27.6 0.8 0
27.9 0.8 0
28.2 0.8 0
28.5 0.8 0
28.8 0.8 0
29.1 0.8 0
29.4 0.8 0
29.7 0.8 0
30 0.8 0
30.3 0.8 0
0 0.9 0
0.3 0.9 0
0.6 0.9 0
0.9 0.9 0
1.2 0.9 0
1.5 0.9 0
1.8 0.9 0
2.1 0.9 0
2.4 0.9 0
2.7 0.9 0
3 0.9 0
3.3 0.9 0
3.6 0.9 0
3.9 0.9 0
4.2 0.9 0
4.5 0.9 0
4.8 0.9 0
5.1 0.9 0
5.4 0.9 0
5.7 0.9 0
6 0.9 0
6.3 0.9 0
6.6 0.9 0
6.9 0.9 0
7.2 0.9 0
7.5 0.9 0
7.8 0.9 0
8.1 0.9 0
8.4 0.9 0
8.7 0.9 0
9 0.9 0
9.3 0.9 0
9.6 0.9 0
9.9 0.9 0
10.2 0.9 0
10.5 0.9 0
10.8 0.9 0
11.1 0.9 0
11.4 0.9 0
11.7 0.9 0
12 0.9 0
12.3 0.9 0
12.6 0.9 0
12.9 0.9 0
13.2 0.9 0
13.5 0.9 0
13.8 0.9 0
14.1 0.9 0
14.4 0.9 0
14.7 0.9 0
15 0.9 0
15.3 0.9 0
15.6 0.9 0
15.9 0.9 0
16.2 0.9 0
16.5 0.9 0
16.8 0.9 0
17.1 0.9 0
17.4 0.9 0
17.7 0.9 0
18 0.9 0
18.3 0.9 0
18.6 0.9 0
18.9 0.9 0
19.2 0.9 0
19.5 0.9 0
19.8 0.9 0
20.1 0.9 0
20.4 0.9 0
20.7 0.9 0
21 0.9 0
21.3 0.9 0
21.6 0.9 0
21.9 0.9 0
22.2 0.9 0
22.5 0.9 0
22.8 0.9 0
23.1 0.9 0
23.4 0.9 0
23.7 0.9 0
24 0.9 0
24.3 0.9 0
24.6 0.9 0
24.9 0.9 0
25.2 0.9 0
25.5 0.9 0
25.8 0.9 0
26.1 0.9 0
26.4 0.9 0
26.7 0.9 0
27 0.9 0
27.3 0.9 0
27.6 0.9 0
27.9 0.9 0
28.2 0.9 0
28.5 0.9 0
28.8 0.9 0
29.1 0.9 0
29.4 0.9 0
29.7 0.9 0
30 0.9 0
30.3 0.9 0
0 1 0
0.3 1 0
0.6 1 0
0.9 1 0
1.2 1 0
1.5 1 0
1.8 1 0
2.1 1 0
2.4 1 0
2.7 1 0
3 1 0
3.3 1 0
3.6 1 0
3.9 1 0
4.2 1 0
4.5 1 0
4.8 1 0
5.1 1 0
5.4 1 0
5.7 1 0
6 1 0
6.3 1 0
6.6 1 0
6.9 1 0
7.2 1 0
7.5 1 0
7.8 1 0
8.1 1 0
8.4 1 0
8.7 1 0
9 1 0
9.3 1 0
9.6 1 0
9.9 1 0
10.2 1 0
10.5 1 0
10.8 1 0
11.1 1 0
11.4 1 0
11.7 1 0
12 1 0
12.3 1 0
12.6 1 0
12.9 1 0
13.2 1 0
13.5 1 0
13.8 1 0
14.1 1 0
14.4 1 0
14.7 1 0
15 1 0
15.3 1 0
15.6 1 0
15.9 1 0
16.2 1 0
16.5 1 0
16.8 1 0
17.1 1 0
17.4 1 0
17.7 1 0
18 1 0
18.3 1 0
18.6 1 0
18.9 1 0
19.2 1 0
19.5 1 0
19.8 1 0
20.1 1 0
20.4 1 0
20.7 1 0
21 1 0
21.3 1 0
21.6 1 0
21.9 1 0
22.2 1 0
22.5 1 0
22.8 1 0
23.1 1 0
23.4 1 0
23.7 1 0
24 1 0
24.3 1 0
24.6 1 0
24.9 1 0
25.2 1 0
25.5 1 0
25.8 1 0
26.1 1 0
26.4 1 0
26.7 1 0
27 1 0
27.3 1 0
27.6 1 0
27.9 1 0
28.2 1 0
28.5 1 0
28.8 1 0
29.1 1 0
29.4 1 0
29.7 1 0
30 1 0
30.3 1 0
0 1.1 0
0.3 1.1 0
0.6 1.1 0
0.9 1.1 0
1.2 1.1 0
1.5 1.1 0
1.8 1.1 0
2.1 1.1 0
2.4 1.1 0
2.7 1.1 0
3 1.1 0
3.3 1.1 0
3.6 1.1 0
3.9 1.1 0
4.2 1.1 0
4.5 1.1 0
4.8 1.1 0
5.1 1.1 0
5.4 1.1 0
5.7 1.1 0
6 1.1 0
6.3 1.1 0
6.6 1.1 0
6.9 1.1 0
7.2 1.1 0
7.5 1.1 0
7.8 1.1 0
8.1 1.1 0
8.4 1.1 0
8.7 1.1 0
9 1.1 0
9.3 1.1 0
9.6 1.1 0
9.9 1.1 0
10.2 1.1 0
10.5 1.1 0
10.8 1.1 0
11.1 1.1 0
11.4 1.1 0
11.7 1.1 0
12 1.1 0
12.3 1.1 0
12.6 1.1 0
12.9 1.1 0
13.2 1.1 0
13.5 1.1 0
13.8 1.1 0
14.1 1.1 0
14.4 1.1 0
14.7 1.1 0
15 1.1 0
15.3 1.1 0
15.6 1.1 0
15.9 1.1 0
16.2 1.1 0
16.5 1.1 0
16.8 1.1 0
17.1 1.1 0
17.4 1.1 0
17.7 1.1 0
18 1.1 0
18.3 1.1 0
18.6 1.1 0
18.9 1.1 0
19.2 1.1 0
19.5 1.1 0
19.8 1.1 0
20.1 1.1 0
20.4 1.1 0
20.7 1.1 0
21 1.1 0
21.3 1.1 0
21.6 1.1 0
21.9 1.1 0
22.2 1.1 0
22.5 1.1 0
22.8 1.1 0
23.1 1.1 0
23.4 1.1 0
23.7 1.1 0
24 1.1 0
24.3 1.1 0
24.6 1.1 0
24.9 1.1 0
25.2 1.1 0
25.5 1.1 0
25.8 1.1 0
26.1 1.1 0
26.4 1.1 0
26.7 1.1 0
27 1.1 0
27.3 1.1 0
27.6 1.1 0
27.9 1.1 0
28.2 1.1 0
28.5 1.1 0
28.8 1.1 0
29.1 1.1 0
29.4 1.1 0
29.7 1.1 0
30 1.1 0
30.3 1.1 0
0 1.2 0
0.3 1.2 0
0.6 1.2 0
0.9 1.2 0
1.2 1.2 0
1.5 1.2 0
1.8 1.2 0
2.1 1.2 0
2.4 1.2 0
2.7 1.2 0
3 1.2 0
3.3 1.2 0
3.6 1.2 0
3.9 1.2 0
4.2 1.2 0
4.5 1.2 0
4.8 1.2 0
5.1 1.2 0
5.4 1.2 0
5.7 1.2 0
6 1.2 0
6.3 1.2 0
6.6 1.2 0
6.9 1.2 0
7.2 1.2 0
7.5 1.2 0
7.8 1.2 0
8.1 1.2 0
8.4 1.2 0
8.7 1.2 0
9 1.2 0
9.3 1.2 0
9.6 1.2 0
9.9 1.2 0
10.2 1.2 0
10.5 1.2 0
10.8 1.2 0
11.1 1.2 0
11.4 1.2 0
11.7 1.2 0
12 1.2 0
12.3 1.2 0
12.6 1.2 0
12.9 1.2 0
13.2 1.2 0
13.5 1.2 0
13.8 1.2 0
14.1 1.2 0
14.4 1.2 0
14.7 1.2 0
15 1.2 0
15.3 1.2 0
15.6 1.2 0
15.9 1.2 0
16.2 1.2 0
16.5 1.2 0
16.8 1.2 0
17.1 1.2 0
17.4 1.2 0
17.7 1.2 0
18 1.2 0
18.3 1.2 0
18.6 1.2 0
18.9 1.2 0
19.2 1.2 0
19.5 1.2 0
19.8 1.2 0
20.1 1.2 0
20.4 1.2 0
20.7 1.2 0
21 1.2 0
21.3 1.2 0
21.6 1.2 0
21.9 1.2 0
22.2 1.2 0
22.5 1.2 0
22.8 1.2 0
23.1 1.2 0
23.4 1.2 0
23.7 1.2 0
24 1.2 0
24.3 1.2 0
24.6 1.2 0
24.9 1.2 0
25.2 1.2 0
25.5 1.2 0
25.8 1.2 0
26.1 1.2 0
26.4 1.2 0
26.7 1.2 0
27 1.2 0
27.3 1.2 0
27.6 1.2 0
27.9 1.2 0
28.2 1.2 0
28.5 1.2 0
28.8 1.2 0
29.1 1.2 0
29.4 1.2 0
29.7 1.2 0
30 1.2 0
30.3 1.2 0

POINT_DATA 1326

SCALARS u double
LOOKUP_TABLE default
-1
-0.88876
-0.771421
-0.670527
-0.588769
-0.524805
-0.475963
-0.439215
-0.411696
-0.390984
-0.375178
-0.362869
-0.353049
-0.345017
-0.338292
-0.332544
-0.327544
-0.323134
-0.3192
-0.315662
-0.312456
-0.309535
-0.306863
-0.304408
-0.302147
-0.300058
-0.298124
-0.296329
-0.29466
-0.293106
-0.291657
-0.290303
-0.289038
-0.287853
-0.286744
-0.285703
-0.284725
-0.283807
-0.282944
-0.282133
-0.281368
-0.280648
-0.279969
-0.279329
-0.278725
-0.278155
-0.277616
-0.277108
-0.27663
-0.276179
-0.275756
-0.27536
-0.274991
-0.274649
-0.274334
-0.274045
-0.273782
-0.273545
-0.273333
-0.273145
-0.27298
-0.272836
-0.272713
-0.272607
-0.272519
-0.272445
-0.272384
-0.272334
-0.272293
-0.272261
-0.272236
-0.272216
-0.2722
-0.272188
-0.27218
-0.272173
-0.272168
-0.272164
-0.272162
-0.27216
-0.272158
-0.272157
-0.272157
-0.272156
-0.272156
-0.272156
-0.272156
-0.272155
-0.272155
-0.272155
-0.272155
-0.272155
-0.272155
-0.272155
-0.272155
-0.272155
-0.272155
-0.272156
-0.272157
-0.272156
-0.272156
-1
1
0.88876
0.771421
0.670527
0.588769
0.524805
0.475963
0.439215
0.411696
0.390984
0.375178
0.362869
0.353049
0.345017
0.338292
0.332544
0.327544
0.323134
0.3192
0.315662
0.312456
0.309535
0.306863
0.304408
0.302147
0.300058
0.298124
0.296329
0.29466
0.293106
0.291657
0.290303
0.289038
0.287853
0.286744
0.285703
0.284725
0.283807
0.282944
0.282133
0.281368
0.280648
0.279969
0.279329
0.278725
0.278155
0.277616
0.277108
0.27663
0.276179
0.275756
0.27536
0.274991
0.274649
0.274334
0.274045
0.273782
0.273545
0.273333
0.273145
0.27298
0.272836
0.272713
0.272607
0.272519
0.272445
0.272384
0.272334
0.272293
0.272261
0.272236
0.272216
0.2722
0.272188
0.27218
0.272173
0.272168
0.272164
0.272162
0.27216
0.272158
0.272157
0.272157
0.272156
0.272156
0.272156
0.272156
0.272155
0.272155
0.272155
0.272155
0.272155
0.272155
0.272155
0.272155
0.272155
0.272155
0.272156
0.272157
0.272156
0.272156
1
1
1.02648
1.02759
1.01578
0.998001
0.977893
0.957443
0.937721
0.919251
0.902242
0.886726
0.872643
0.859893
0.848355
0.837908
0.828437
0.819835
0.812006
0.804862
0.79833
0.792341
0.786837
0.781769
0.777091
0.772764
0.768755
0.765034
0.761574
0.758353
0.755349
0.752545
0.749924
0.747472
0.745175
0.743022
0.741002
0.739106
0.737324
0.735649
0.734073
0.73259
0.731193
0.729877
0.728636
0.727466
0.726364
0.725324
0.724346
0.723426
0.722563
0.721755
0.721002
0.720302
0.719657
0.719064
0.718523
0.718034
0.717595
0.717203
0.716858
0.716557
0.716295
0.716072
0.715882
0.715723
0.71559
0.715481
0.715393
0.715322
0.715265
0.715221
0.715186
0.715159
0.715139
0.715124
0.715112
0.715104
0.715097
0.715093
0.71509
0.715088
0.715086
0.715085
0.715084
0.715084
0.715083
0.715083
0.715083
0.715083
0.715083
0.715083
0.715083
0.715083
0.715083
0.715083
0.715083
0.715083
0.715083
0.715083
0.715095
0.715095
1
1
1.03148
1.06334
1.08875
1.10753
1.1205
1.12878
1.13347
1.13551
1.13567
1.13453
1.13251
1.12991
1.12695
1.12378
1.12051
1.11721
1.11394
1.11073
1.10761
1.10459
1.10169
1.0989
1.09625
1.09371
1.0913
1.08901
1.08684
1.08478
1.08282
1.08098
1.07923
1.07757
1.076
1.07452
1.07312
1.0718
1.07055
1.06937
1.06825
1.06719
1.0662
1.06525
1.06436
1.06352
1.06272
1.06197
1.06126
1.06059
1.05996
1.05937
1.05882
1.0583
1.05782
1.05738
1.05697
1.0566
1.05626
1.05596
1.05569
1.05545
1.05524
1.05506
1.0549
1.05476
1.05465
1.05456
1.05448
1.05442
1.05436
1.05432
1.05429
1.05427
1.05425
1.05423
1.05422
1.05421
1.05421
1.0542
1.0542
1.0542
1.05419
1.05419
1.05419
1.05419
1.05419
1.05419
1.05419
1.05419
1.05419
1.05419
1.05419
1.05419
1.05419
1.05419
1.05419
1.05419
1.05419
1.05419
1.0542
1.0542
1
1
1.02429
1.05912
1.09356
1.12437
1.15061
1.17234
1.19008
1.2045
1.21627
1.22596
1.23403
1.24081
1.24658
1.25152
1.2558
1.25951
1.26276
1.26561
1.26812
1.27034
1.2723
1.27405
1.27561
1.27701
1.27825
1.27938
1.28039
1.28131
1.28213
1.28289
1.28357
1.2842
1.28477
1.28529
1.28578
1.28622
1.28663
1.287
1.28735
1.28768
1.28798
1.28826
1.28852
1.28877
1.289
1.28921
1.28941
1.28959
1.28977
1.28992
1.29007
1.29021
1.29033
1.29044
1.29053
1.29062
1.29069
1.29075
1.29081
1.29085
1.29088
1.29091
1.29093
1.29095
1.29096
1.29096
1.29097
1.29097
1.29097
1.29097
1.29097
1.29097
1.29097
1.29097
1.29097
1.29097
1.29097
1.29097
1.29097
1.29097
1.29097
1.29097
1.29097
1.29097
1.29097
1.29097
1.29097
1.29097
1.29097
1.29097
1.29097
1.29097
1.29097
1.29097
1.29097
1.29097
1.29097
1.29096
1.29096
1.29096
1
1
1.01979
1.05308
1.08837
1.1216
1.15133
1.17726
1.19964
1.21895
1.23573
1.25048
1.26359
1.27537
1.28606
1.29583
1.30481
1.31311
1.32079
1.32793
1.33458
1.34077
1.34656
1.35196
1.35702
1.36175
1.36619
1.37035
1.37426
1.37792
1.38137
1.3846
1.38765
1.39051
1.39321
1.39575
1.39814
1.4004
1.40252
1.40453
1.40641
1.4082
1.40988
1.41147
1.41297
1.41439
1.41572
1.41699
1.41818
1.4193
1.42035
1.42134
1.42227
1.42313
1.42393
1.42467
1.42535
1.42596
1.42652
1.42702
1.42746
1.42785
1.42819
1.42849
1.42874
1.42896
1.42914
1.42929
1.42941
1.42951
1.42959
1.42965
1.4297
1.42974
1.42977
1.42979
1.42981
1.42983
1.42983
1.42984
1.42985
1.42985
1.42985
1.42985
1.42986
1.42986
1.42986
1.42986
1.42986
1.42986
1.42986
1.42986
1.42986
1.42986
1.42986
1.42986
1.42986
1.42986
1.42986
1.42986
1.42985
1.42985
1
1
1.01839
1.05092
1.08603
1.11947
1.14972
1.17641
1.19975
1.22017
1.23818
1.25424
1.26873
1.28194
1.29409
1.30534
1.3158
1.32558
1.33474
1.34334
1.35142
1.35901
1.36617
1.3729
1.37925
1.38524
1.39088
1.3962
1.40122
1.40596
1.41044
1.41466
1.41865
1.42242
1.42597
1.42933
1.43251
1.43551
1.43834
1.44102
1.44355
1.44594
1.4482
1.45034
1.45236
1.45428
1.45608
1.45779
1.4594
1.46092
1.46235
1.4637
1.46496
1.46613
1.46722
1.46823
1.46916
1.47001
1.47078
1.47147
1.47208
1.47263
1.47311
1.47352
1.47388
1.47419
1.47444
1.47466
1.47484
1.47498
1.4751
1.47519
1.47527
1.47533
1.47537
1.47541
1.47544
1.47546
1.47547
1.47548
1.47549
1.47549
1.4755
1.4755
1.4755
1.47551
1.47551
1.47551
1.47551
1.47551
1.47551
1.47551
1.47551
1.47551
1.47551
1.47551
1.47551
1.47551
1.47551
1.47551
1.47549
1.47549
1
1
1.01979
1.05308
1.08837
1.1216
1.15133
1.17726
1.19964
1.21895
1.23573
1.25048
1.26359
1.27537
1.28606
1.29583
1.30481
1.31311
1.32079
1.32793
1.33458
1.34077
1.34656
1.35196
1.35702
1.36175
1.36619
1.37035
1.37426
1.37792
1.38137
1.3846
1.38765
1.39051
1.39321
1.39575
1.39814
1.4004
1.40252
1.40453
1.40642
1.4082
1.40988
1.41147
1.41297
1.41439
1.41572
1.41699
1.41818
1.4193
1.42035
1.42134
1.42227
1.42313
1.42393
1.42467
1.42535
1.42596
1.42652
1.42702
1.42746
1.42785
1.4282
1.42849
1.42874
1.42896
1.42914
1.42929
1.42941
1.42951
1.42959
1.42965
1.4297
1.42974
1.42977
1.4298
1.42981
1.42983
1.42983
1.42984
1.42985
1.42985
1.42985
1.42986
1.42986
1.42986
1.42986
1.42986
1.42986
1.42986
1.42986
1.42986
1.42986
1.42986
1.42986
1.42986
1.42986
1.42986
1.42986
1.42986
1.42985
1.42985
1
1
1.02429
1.05912
1.09356
1.12437
1.15061
1.17234
1.19008
1.2045
1.21627
1.22596
1.23403
1.24081
1.24658
1.25152
1.2558
1.25951
1.26276
1.26561
1.26812
1.27034
1.2723
1.27405
1.27561
1.27701
1.27826
1.27938
1.28039
1.28131
1.28214
1.28289
1.28357
1.2842
1.28477
1.28529
1.28578
1.28622
1.28663
1.28701
1.28736
1.28768
1.28798
1.28826
1.28852
1.28877
1.289
1.28921
1.28941
1.28959
1.28977
1.28993
1.29007
1.29021
1.29033
1.29044
1.29053
1.29062
1.29069
1.29076
1.29081
1.29085
1.29088
1.29091
1.29093
1.29095
1.29096
1.29097
1.29097
1.29097
1.29097
1.29097
1.29097
1.29097
1.29097
1.29097
1.29097
1.29097
1.29097
1.29097
1.29097
1.29097
1.29097
1.29097
1.29097
1.29097
1.29097
1.29097
1.29097
1.29097
1.29097
1.29097
1.29097
1.29097
1.29097
1.29097
1.29097
1.29097
1.29097
1.29096
1.29096
1.29096
1
1
1.03148
1.06334
1.08875
1.10753
1.1205
1.12878
1.13347
1.13551
1.13567
1.13453
1.13251
1.12991
1.12695
1.12378
1.12051
1.11721
1.11394
1.11073
1.10761
1.10459
1.10169
1.09891
1.09625
1.09371
1.0913
1.08901
1.08684
1.08478
1.08282
1.08098
1.07923
1.07757
1.076
1.07452
1.07312
1.0718
1.07055
1.06937
1.06825
1.0672
1.0662
1.06525
1.06436
1.06352
1.06272
1.06197
1.06126
1.06059
1.05996
1.05937
1.05882
1.0583
1.05782
1.05738
1.05697
1.0566
1.05626
1.05596
1.05569
1.05545
1.05524
1.05506
1.0549
1.05477
1.05465
1.05456
1.05448
1.05442
1.05437
1.05433
1.05429
1.05427
1.05425
1.05423
1.05422
1.05421
1.05421
1.0542
1.0542
1.0542
1.0542
1.05419
1.05419
1.05419
1.05419
1.05419
1.05419
1.05419
1.05419
1.05419
1.05419
1.05419
1.05419
1.05419
1.05419
1.05419
1.05419
1.05419
1.0542
1.0542
1
1
1.02648
1.02759
1.01578
0.998002
0.977893
0.957443
0.937721
0.919252
0.902242
0.886726
0.872644
0.859893
0.848355
0.837909
0.828438
0.819836
0.812006
0.804863
0.79833
0.792341
0.786838
0.781769
0.777091
0.772765
0.768756
0.765035
0.761575
0.758354
0.75535
0.752546
0.749925
0.747473
0.745176
0.743023
0.741003
0.739107
0.737325
0.73565
0.734074
0.732591
0.731194
0.729877
0.728637
0.727467
0.726364
0.725325
0.724347
0.723427
0.722563
0.721756
0.721003
0.720303
0.719658
0.719065
0.718524
0.718035
0.717596
0.717205
0.716859
0.716558
0.716297
0.716073
0.715883
0.715724
0.715591
0.715483
0.715394
0.715323
0.715266
0.715222
0.715187
0.71516
0.71514
0.715125
0.715113
0.715105
0.715098
0.715094
0.715091
0.715088
0.715087
0.715085
0.715085
0.715084
0.715084
0.715083
0.715083
0.715083
0.715083
0.715083
0.715083
0.715083
0.715083
0.715083
0.715083
0.715083
0.715084
0.715084
0.715095
0.715095
1
1
0.88876
0.771421
0.670527
0.588769
0.524805
0.475963
0.439215
0.411697
0.390985
0.375179
0.362869
0.353049
0.345017
0.338292
0.332544
0.327544
0.323134
0.319201
0.315662
0.312456
0.309536
0.306863
0.304409
0.302147
0.300058
0.298124
0.296329
0.29466
0.293106
0.291657
0.290304
0.289038
0.287854
0.286744
0.285703
0.284726
0.283808
0.282945
0.282133
0.281369
0.280649
0.27997
0.27933
0.278725
0.278155
0.277617
0.277109
0.27663
0.27618
0.275757
0.275361
0.274992
0.27465
0.274334
0.274045
0.273783
0.273546
0.273334
0.273146
0.272981
0.272837
0.272713
0.272608
0.272519
0.272445
0.272384
0.272334
0.272294
0.272262
0.272236
0.272216
0.272201
0.272189
0.27218
0.272173
0.272168
0.272165
0.272162
0.27216
0.272159
0.272158
0.272157
0.272157
0.272156
0.272156
0.272156
0.272156
0.272156
0.272156
0.272156
0.272155
0.272155
0.272155
0.272155
0.272155
0.272155
0.272156
0.272157
0.272156
0.272156
1
-1
-0.88876
-0.771421
-0.670527
-0.588769
-0.524805
-0.475963
-0.439215
-0.411697
-0.390985
-0.375179
-0.362869
-0.353049
-0.345017
-0.338292
-0.332544
-0.327544
-0.323134
-0.319201
-0.315662
-0.312456
-0.309536
-0.306863
-0.304409
-0.302147
-0.300058
-0.298124
-0.296329
-0.29466
-0.293106
-0.291657
-0.290304
-0.289038
-0.287854
-0.286744
-0.285703
-0.284726
-0.283808
-0.282945
-0.282133
-0.281369
-0.280649
-0.27997
-0.27933
-0.278725
-0.278155
-0.277617
-0.277109
-0.27663
-0.27618
-0.275757
-0.275361
-0.274992
-0.27465
-0.274334
-0.274045
-0.273783
-0.273546
-0.273334
-0.273146
-0.272981
-0.272837
-0.272713
-0.272608
-0.272519
-0.272445
-0.272384
-0.272334
-0.272294
-0.272262
-0.272236
-0.272216
-0.272201
-0.272189
-0.27218
-0.272173
-0.272168
-0.272165
-0.272162
-0.27216
-0.272159
-0.272158
-0.272157
-0.272157
-0.272156
-0.272156
-0.272156
-0.272156
-0.272156
-0.272156
-0.272156
-0.272155
-0.272155
-0.272155
-0.272155
-0.272155
-0.272155
-0.272156
-0.272157
-0.272156
-0.272156
-1
