# vtk DataFile Version 2.0
FlowField
ASCII
DATASET STRUCTURED_GRID
DIMENSIONS 101 11 1 
POINTS 1111 double
0 0 0
0.3 0 0
0.6 0 0
0.9 0 0
1.2 0 0
1.5 0 0
1.8 0 0
2.1 0 0
2.4 0 0
2.7 0 0
3 0 0
3.3 0 0
3.6 0 0
3.9 0 0
4.2 0 0
4.5 0 0
4.8 0 0
5.1 0 0
5.4 0 0
5.7 0 0
6 0 0
6.3 0 0
6.6 0 0
6.9 0 0
7.2 0 0
7.5 0 0
7.8 0 0
8.1 0 0
8.4 0 0
8.7 0 0
9 0 0
9.3 0 0
9.6 0 0
9.9 0 0
10.2 0 0
10.5 0 0
10.8 0 0
11.1 0 0
11.4 0 0
11.7 0 0
12 0 0
12.3 0 0
12.6 0 0
12.9 0 0
13.2 0 0
13.5 0 0
13.8 0 0
14.1 0 0
14.4 0 0
14.7 0 0
15 0 0
15.3 0 0
15.6 0 0
15.9 0 0
16.2 0 0
16.5 0 0
16.8 0 0
17.1 0 0
17.4 0 0
17.7 0 0
18 0 0
18.3 0 0
18.6 0 0
18.9 0 0
19.2 0 0
19.5 0 0
19.8 0 0
20.1 0 0
20.4 0 0
20.7 0 0
21 0 0
21.3 0 0
21.6 0 0
21.9 0 0
22.2 0 0
22.5 0 0
22.8 0 0
23.1 0 0
23.4 0 0
23.7 0 0
24 0 0
24.3 0 0
24.6 0 0
24.9 0 0
25.2 0 0
25.5 0 0
25.8 0 0
26.1 0 0
26.4 0 0
26.7 0 0
27 0 0
27.3 0 0
27.6 0 0
27.9 0 0
28.2 0 0
28.5 0 0
28.8 0 0
29.1 0 0
29.4 0 0
29.7 0 0
30 0 0
0 0.1 0
0.3 0.1 0
0.6 0.1 0
0.9 0.1 0
1.2 0.1 0
1.5 0.1 0
1.8 0.1 0
2.1 0.1 0
2.4 0.1 0
2.7 0.1 0
3 0.1 0
3.3 0.1 0
3.6 0.1 0
3.9 0.1 0
4.2 0.1 0
4.5 0.1 0
4.8 0.1 0
5.1 0.1 0
5.4 0.1 0
5.7 0.1 0
6 0.1 0
6.3 0.1 0
6.6 0.1 0
6.9 0.1 0
7.2 0.1 0
7.5 0.1 0
7.8 0.1 0
8.1 0.1 0
8.4 0.1 0
8.7 0.1 0
9 0.1 0
9.3 0.1 0
9.6 0.1 0
9.9 0.1 0
10.2 0.1 0
10.5 0.1 0
10.8 0.1 0
11.1 0.1 0
11.4 0.1 0
11.7 0.1 0
12 0.1 0
12.3 0.1 0
12.6 0.1 0
12.9 0.1 0
13.2 0.1 0
13.5 0.1 0
13.8 0.1 0
14.1 0.1 0
14.4 0.1 0
14.7 0.1 0
15 0.1 0
15.3 0.1 0
15.6 0.1 0
15.9 0.1 0
16.2 0.1 0
16.5 0.1 0
16.8 0.1 0
17.1 0.1 0
17.4 0.1 0
17.7 0.1 0
18 0.1 0
18.3 0.1 0
18.6 0.1 0
18.9 0.1 0
19.2 0.1 0
19.5 0.1 0
19.8 0.1 0
20.1 0.1 0
20.4 0.1 0
20.7 0.1 0
21 0.1 0
21.3 0.1 0
21.6 0.1 0
21.9 0.1 0
22.2 0.1 0
22.5 0.1 0
22.8 0.1 0
23.1 0.1 0
23.4 0.1 0
23.7 0.1 0
24 0.1 0
24.3 0.1 0
24.6 0.1 0
24.9 0.1 0
25.2 0.1 0
25.5 0.1 0
25.8 0.1 0
26.1 0.1 0
26.4 0.1 0
26.7 0.1 0
27 0.1 0
27.3 0.1 0
27.6 0.1 0
27.9 0.1 0
28.2 0.1 0
28.5 0.1 0
28.8 0.1 0
29.1 0.1 0
29.4 0.1 0
29.7 0.1 0
30 0.1 0
0 0.2 0
0.3 0.2 0
0.6 0.2 0
0.9 0.2 0
1.2 0.2 0
1.5 0.2 0
1.8 0.2 0
2.1 0.2 0
2.4 0.2 0
2.7 0.2 0
3 0.2 0
3.3 0.2 0
3.6 0.2 0
3.9 0.2 0
4.2 0.2 0
4.5 0.2 0
4.8 0.2 0
5.1 0.2 0
5.4 0.2 0
5.7 0.2 0
6 0.2 0
6.3 0.2 0
6.6 0.2 0
6.9 0.2 0
7.2 0.2 0
7.5 0.2 0
7.8 0.2 0
8.1 0.2 0
8.4 0.2 0
8.7 0.2 0
9 0.2 0
9.3 0.2 0
9.6 0.2 0
9.9 0.2 0
10.2 0.2 0
10.5 0.2 0
10.8 0.2 0
11.1 0.2 0
11.4 0.2 0
11.7 0.2 0
12 0.2 0
12.3 0.2 0
12.6 0.2 0
12.9 0.2 0
13.2 0.2 0
13.5 0.2 0
13.8 0.2 0
14.1 0.2 0
14.4 0.2 0
14.7 0.2 0
15 0.2 0
15.3 0.2 0
15.6 0.2 0
15.9 0.2 0
16.2 0.2 0
16.5 0.2 0
16.8 0.2 0
17.1 0.2 0
17.4 0.2 0
17.7 0.2 0
18 0.2 0
18.3 0.2 0
18.6 0.2 0
18.9 0.2 0
19.2 0.2 0
19.5 0.2 0
19.8 0.2 0
20.1 0.2 0
20.4 0.2 0
20.7 0.2 0
21 0.2 0
21.3 0.2 0
21.6 0.2 0
21.9 0.2 0
22.2 0.2 0
22.5 0.2 0
22.8 0.2 0
23.1 0.2 0
23.4 0.2 0
23.7 0.2 0
24 0.2 0
24.3 0.2 0
24.6 0.2 0
24.9 0.2 0
25.2 0.2 0
25.5 0.2 0
25.8 0.2 0
26.1 0.2 0
26.4 0.2 0
26.7 0.2 0
27 0.2 0
27.3 0.2 0
27.6 0.2 0
27.9 0.2 0
28.2 0.2 0
28.5 0.2 0
28.8 0.2 0
29.1 0.2 0
29.4 0.2 0
29.7 0.2 0
30 0.2 0
0 0.3 0
0.3 0.3 0
0.6 0.3 0
0.9 0.3 0
1.2 0.3 0
1.5 0.3 0
1.8 0.3 0
2.1 0.3 0
2.4 0.3 0
2.7 0.3 0
3 0.3 0
3.3 0.3 0
3.6 0.3 0
3.9 0.3 0
4.2 0.3 0
4.5 0.3 0
4.8 0.3 0
5.1 0.3 0
5.4 0.3 0
5.7 0.3 0
6 0.3 0
6.3 0.3 0
6.6 0.3 0
6.9 0.3 0
7.2 0.3 0
7.5 0.3 0
7.8 0.3 0
8.1 0.3 0
8.4 0.3 0
8.7 0.3 0
9 0.3 0
9.3 0.3 0
9.6 0.3 0
9.9 0.3 0
10.2 0.3 0
10.5 0.3 0
10.8 0.3 0
11.1 0.3 0
11.4 0.3 0
11.7 0.3 0
12 0.3 0
12.3 0.3 0
12.6 0.3 0
12.9 0.3 0
13.2 0.3 0
13.5 0.3 0
13.8 0.3 0
14.1 0.3 0
14.4 0.3 0
14.7 0.3 0
15 0.3 0
15.3 0.3 0
15.6 0.3 0
15.9 0.3 0
16.2 0.3 0
16.5 0.3 0
16.8 0.3 0
17.1 0.3 0
17.4 0.3 0
17.7 0.3 0
18 0.3 0
18.3 0.3 0
18.6 0.3 0
18.9 0.3 0
19.2 0.3 0
19.5 0.3 0
19.8 0.3 0
20.1 0.3 0
20.4 0.3 0
20.7 0.3 0
21 0.3 0
21.3 0.3 0
21.6 0.3 0
21.9 0.3 0
22.2 0.3 0
22.5 0.3 0
22.8 0.3 0
23.1 0.3 0
23.4 0.3 0
23.7 0.3 0
24 0.3 0
24.3 0.3 0
24.6 0.3 0
24.9 0.3 0
25.2 0.3 0
25.5 0.3 0
25.8 0.3 0
26.1 0.3 0
26.4 0.3 0
26.7 0.3 0
27 0.3 0
27.3 0.3 0
27.6 0.3 0
27.9 0.3 0
28.2 0.3 0
28.5 0.3 0
28.8 0.3 0
29.1 0.3 0
29.4 0.3 0
29.7 0.3 0
30 0.3 0
0 0.4 0
0.3 0.4 0
0.6 0.4 0
0.9 0.4 0
1.2 0.4 0
1.5 0.4 0
1.8 0.4 0
2.1 0.4 0
2.4 0.4 0
2.7 0.4 0
3 0.4 0
3.3 0.4 0
3.6 0.4 0
3.9 0.4 0
4.2 0.4 0
4.5 0.4 0
4.8 0.4 0
5.1 0.4 0
5.4 0.4 0
5.7 0.4 0
6 0.4 0
6.3 0.4 0
6.6 0.4 0
6.9 0.4 0
7.2 0.4 0
7.5 0.4 0
7.8 0.4 0
8.1 0.4 0
8.4 0.4 0
8.7 0.4 0
9 0.4 0
9.3 0.4 0
9.6 0.4 0
9.9 0.4 0
10.2 0.4 0
10.5 0.4 0
10.8 0.4 0
11.1 0.4 0
11.4 0.4 0
11.7 0.4 0
12 0.4 0
12.3 0.4 0
12.6 0.4 0
12.9 0.4 0
13.2 0.4 0
13.5 0.4 0
13.8 0.4 0
14.1 0.4 0
14.4 0.4 0
14.7 0.4 0
15 0.4 0
15.3 0.4 0
15.6 0.4 0
15.9 0.4 0
16.2 0.4 0
16.5 0.4 0
16.8 0.4 0
17.1 0.4 0
17.4 0.4 0
17.7 0.4 0
18 0.4 0
18.3 0.4 0
18.6 0.4 0
18.9 0.4 0
19.2 0.4 0
19.5 0.4 0
19.8 0.4 0
20.1 0.4 0
20.4 0.4 0
20.7 0.4 0
21 0.4 0
21.3 0.4 0
21.6 0.4 0
21.9 0.4 0
22.2 0.4 0
22.5 0.4 0
22.8 0.4 0
23.1 0.4 0
23.4 0.4 0
23.7 0.4 0
24 0.4 0
24.3 0.4 0
24.6 0.4 0
24.9 0.4 0
25.2 0.4 0
25.5 0.4 0
25.8 0.4 0
26.1 0.4 0
26.4 0.4 0
26.7 0.4 0
27 0.4 0
27.3 0.4 0
27.6 0.4 0
27.9 0.4 0
28.2 0.4 0
28.5 0.4 0
28.8 0.4 0
29.1 0.4 0
29.4 0.4 0
29.7 0.4 0
30 0.4 0
0 0.5 0
0.3 0.5 0
0.6 0.5 0
0.9 0.5 0
1.2 0.5 0
1.5 0.5 0
1.8 0.5 0
2.1 0.5 0
2.4 0.5 0
2.7 0.5 0
3 0.5 0
3.3 0.5 0
3.6 0.5 0
3.9 0.5 0
4.2 0.5 0
4.5 0.5 0
4.8 0.5 0
5.1 0.5 0
5.4 0.5 0
5.7 0.5 0
6 0.5 0
6.3 0.5 0
6.6 0.5 0
6.9 0.5 0
7.2 0.5 0
7.5 0.5 0
7.8 0.5 0
8.1 0.5 0
8.4 0.5 0
8.7 0.5 0
9 0.5 0
9.3 0.5 0
9.6 0.5 0
9.9 0.5 0
10.2 0.5 0
10.5 0.5 0
10.8 0.5 0
11.1 0.5 0
11.4 0.5 0
11.7 0.5 0
12 0.5 0
12.3 0.5 0
12.6 0.5 0
12.9 0.5 0
13.2 0.5 0
13.5 0.5 0
13.8 0.5 0
14.1 0.5 0
14.4 0.5 0
14.7 0.5 0
15 0.5 0
15.3 0.5 0
15.6 0.5 0
15.9 0.5 0
16.2 0.5 0
16.5 0.5 0
16.8 0.5 0
17.1 0.5 0
17.4 0.5 0
17.7 0.5 0
18 0.5 0
18.3 0.5 0
18.6 0.5 0
18.9 0.5 0
19.2 0.5 0
19.5 0.5 0
19.8 0.5 0
20.1 0.5 0
20.4 0.5 0
20.7 0.5 0
21 0.5 0
21.3 0.5 0
21.6 0.5 0
21.9 0.5 0
22.2 0.5 0
22.5 0.5 0
22.8 0.5 0
23.1 0.5 0
23.4 0.5 0
23.7 0.5 0
24 0.5 0
24.3 0.5 0
24.6 0.5 0
24.9 0.5 0
25.2 0.5 0
25.5 0.5 0
25.8 0.5 0
26.1 0.5 0
26.4 0.5 0
26.7 0.5 0
27 0.5 0
27.3 0.5 0
27.6 0.5 0
27.9 0.5 0
28.2 0.5 0
28.5 0.5 0
28.8 0.5 0
29.1 0.5 0
29.4 0.5 0
29.7 0.5 0
30 0.5 0
0 0.6 0
0.3 0.6 0
0.6 0.6 0
0.9 0.6 0
1.2 0.6 0
1.5 0.6 0
1.8 0.6 0
2.1 0.6 0
2.4 0.6 0
2.7 0.6 0
3 0.6 0
3.3 0.6 0
3.6 0.6 0
3.9 0.6 0
4.2 0.6 0
4.5 0.6 0
4.8 0.6 0
5.1 0.6 0
5.4 0.6 0
5.7 0.6 0
6 0.6 0
6.3 0.6 0
6.6 0.6 0
6.9 0.6 0
7.2 0.6 0
7.5 0.6 0
7.8 0.6 0
8.1 0.6 0
8.4 0.6 0
8.7 0.6 0
9 0.6 0
9.3 0.6 0
9.6 0.6 0
9.9 0.6 0
10.2 0.6 0
10.5 0.6 0
10.8 0.6 0
11.1 0.6 0
11.4 0.6 0
11.7 0.6 0
12 0.6 0
12.3 0.6 0
12.6 0.6 0
12.9 0.6 0
13.2 0.6 0
13.5 0.6 0
13.8 0.6 0
14.1 0.6 0
14.4 0.6 0
14.7 0.6 0
15 0.6 0
15.3 0.6 0
15.6 0.6 0
15.9 0.6 0
16.2 0.6 0
16.5 0.6 0
16.8 0.6 0
17.1 0.6 0
17.4 0.6 0
17.7 0.6 0
18 0.6 0
18.3 0.6 0
18.6 0.6 0
18.9 0.6 0
19.2 0.6 0
19.5 0.6 0
19.8 0.6 0
20.1 0.6 0
20.4 0.6 0
20.7 0.6 0
21 0.6 0
21.3 0.6 0
21.6 0.6 0
21.9 0.6 0
22.2 0.6 0
22.5 0.6 0
22.8 0.6 0
23.1 0.6 0
23.4 0.6 0
23.7 0.6 0
24 0.6 0
24.3 0.6 0
24.6 0.6 0
24.9 0.6 0
25.2 0.6 0
25.5 0.6 0
25.8 0.6 0
26.1 0.6 0
26.4 0.6 0
26.7 0.6 0
27 0.6 0
27.3 0.6 0
27.6 0.6 0
27.9 0.6 0
28.2 0.6 0
28.5 0.6 0
28.8 0.6 0
29.1 0.6 0
29.4 0.6 0
29.7 0.6 0
30 0.6 0
0 0.7 0
0.3 0.7 0
0.6 0.7 0
0.9 0.7 0
1.2 0.7 0
1.5 0.7 0
1.8 0.7 0
2.1 0.7 0
2.4 0.7 0
2.7 0.7 0
3 0.7 0
3.3 0.7 0
3.6 0.7 0
3.9 0.7 0
4.2 0.7 0
4.5 0.7 0
4.8 0.7 0
5.1 0.7 0
5.4 0.7 0
5.7 0.7 0
6 0.7 0
6.3 0.7 0
6.6 0.7 0
6.9 0.7 0
7.2 0.7 0
7.5 0.7 0
7.8 0.7 0
8.1 0.7 0
8.4 0.7 0
8.7 0.7 0
9 0.7 0
9.3 0.7 0
9.6 0.7 0
9.9 0.7 0
10.2 0.7 0
10.5 0.7 0
10.8 0.7 0
11.1 0.7 0
11.4 0.7 0
11.7 0.7 0
12 0.7 0
12.3 0.7 0
12.6 0.7 0
12.9 0.7 0
13.2 0.7 0
13.5 0.7 0
13.8 0.7 0
14.1 0.7 0
14.4 0.7 0
14.7 0.7 0
15 0.7 0
15.3 0.7 0
15.6 0.7 0
15.9 0.7 0
16.2 0.7 0
16.5 0.7 0
16.8 0.7 0
17.1 0.7 0
17.4 0.7 0
17.7 0.7 0
18 0.7 0
18.3 0.7 0
18.6 0.7 0
18.9 0.7 0
19.2 0.7 0
19.5 0.7 0
19.8 0.7 0
20.1 0.7 0
20.4 0.7 0
20.7 0.7 0
21 0.7 0
21.3 0.7 0
21.6 0.7 0
21.9 0.7 0
22.2 0.7 0
22.5 0.7 0
22.8 0.7 0
23.1 0.7 0
23.4 0.7 0
23.7 0.7 0
24 0.7 0
24.3 0.7 0
24.6 0.7 0
24.9 0.7 0
25.2 0.7 0
25.5 0.7 0
25.8 0.7 0
26.1 0.7 0
26.4 0.7 0
26.7 0.7 0
27 0.7 0
27.3 0.7 0
27.6 0.7 0
27.9 0.7 0
28.2 0.7 0
28.5 0.7 0
28.8 0.7 0
29.1 0.7 0
29.4 0.7 0
29.7 0.7 0
30 0.7 0
0 0.8 0
0.3 0.8 0
0.6 0.8 0
0.9 0.8 0
1.2 0.8 0
1.5 0.8 0
1.8 0.8 0
2.1 0.8 0
2.4 0.8 0
2.7 0.8 0
3 0.8 0
3.3 0.8 0
3.6 0.8 0
3.9 0.8 0
4.2 0.8 0
4.5 0.8 0
4.8 0.8 0
5.1 0.8 0
5.4 0.8 0
5.7 0.8 0
6 0.8 0
6.3 0.8 0
6.6 0.8 0
6.9 0.8 0
7.2 0.8 0
7.5 0.8 0
7.8 0.8 0
8.1 0.8 0
8.4 0.8 0
8.7 0.8 0
9 0.8 0
9.3 0.8 0
9.6 0.8 0
9.9 0.8 0
10.2 0.8 0
10.5 0.8 0
10.8 0.8 0
11.1 0.8 0
11.4 0.8 0
11.7 0.8 0
12 0.8 0
12.3 0.8 0
12.6 0.8 0
12.9 0.8 0
13.2 0.8 0
13.5 0.8 0
13.8 0.8 0
14.1 0.8 0
14.4 0.8 0
14.7 0.8 0
15 0.8 0
15.3 0.8 0
15.6 0.8 0
15.9 0.8 0
16.2 0.8 0
16.5 0.8 0
16.8 0.8 0
17.1 0.8 0
17.4 0.8 0
17.7 0.8 0
18 0.8 0
18.3 0.8 0
18.6 0.8 0
18.9 0.8 0
19.2 0.8 0
19.5 0.8 0
19.8 0.8 0
20.1 0.8 0
20.4 0.8 0
20.7 0.8 0
21 0.8 0
21.3 0.8 0
21.6 0.8 0
21.9 0.8 0
22.2 0.8 0
22.5 0.8 0
22.8 0.8 0
23.1 0.8 0
23.4 0.8 0
23.7 0.8 0
24 0.8 0
24.3 0.8 0
24.6 0.8 0
24.9 0.8 0
25.2 0.8 0
25.5 0.8 0
25.8 0.8 0
26.1 0.8 0
26.4 0.8 0
26.7 0.8 0
27 0.8 0
27.3 0.8 0
27.6 0.8 0
27.9 0.8 0
28.2 0.8 0
28.5 0.8 0
28.8 0.8 0
29.1 0.8 0
29.4 0.8 0
29.7 0.8 0
30 0.8 0
0 0.9 0
0.3 0.9 0
0.6 0.9 0
0.9 0.9 0
1.2 0.9 0
1.5 0.9 0
1.8 0.9 0
2.1 0.9 0
2.4 0.9 0
2.7 0.9 0
3 0.9 0
3.3 0.9 0
3.6 0.9 0
3.9 0.9 0
4.2 0.9 0
4.5 0.9 0
4.8 0.9 0
5.1 0.9 0
5.4 0.9 0
5.7 0.9 0
6 0.9 0
6.3 0.9 0
6.6 0.9 0
6.9 0.9 0
7.2 0.9 0
7.5 0.9 0
7.8 0.9 0
8.1 0.9 0
8.4 0.9 0
8.7 0.9 0
9 0.9 0
9.3 0.9 0
9.6 0.9 0
9.9 0.9 0
10.2 0.9 0
10.5 0.9 0
10.8 0.9 0
11.1 0.9 0
11.4 0.9 0
11.7 0.9 0
12 0.9 0
12.3 0.9 0
12.6 0.9 0
12.9 0.9 0
13.2 0.9 0
13.5 0.9 0
13.8 0.9 0
14.1 0.9 0
14.4 0.9 0
14.7 0.9 0
15 0.9 0
15.3 0.9 0
15.6 0.9 0
15.9 0.9 0
16.2 0.9 0
16.5 0.9 0
16.8 0.9 0
17.1 0.9 0
17.4 0.9 0
17.7 0.9 0
18 0.9 0
18.3 0.9 0
18.6 0.9 0
18.9 0.9 0
19.2 0.9 0
19.5 0.9 0
19.8 0.9 0
20.1 0.9 0
20.4 0.9 0
20.7 0.9 0
21 0.9 0
21.3 0.9 0
21.6 0.9 0
21.9 0.9 0
22.2 0.9 0
22.5 0.9 0
22.8 0.9 0
23.1 0.9 0
23.4 0.9 0
23.7 0.9 0
24 0.9 0
24.3 0.9 0
24.6 0.9 0
24.9 0.9 0
25.2 0.9 0
25.5 0.9 0
25.8 0.9 0
26.1 0.9 0
26.4 0.9 0
26.7 0.9 0
27 0.9 0
27.3 0.9 0
27.6 0.9 0
27.9 0.9 0
28.2 0.9 0
28.5 0.9 0
28.8 0.9 0
29.1 0.9 0
29.4 0.9 0
29.7 0.9 0
30 0.9 0
0 1 0
0.3 1 0
0.6 1 0
0.9 1 0
1.2 1 0
1.5 1 0
1.8 1 0
2.1 1 0
2.4 1 0
2.7 1 0
3 1 0
3.3 1 0
3.6 1 0
3.9 1 0
4.2 1 0
4.5 1 0
4.8 1 0
5.1 1 0
5.4 1 0
5.7 1 0
6 1 0
6.3 1 0
6.6 1 0
6.9 1 0
7.2 1 0
7.5 1 0
7.8 1 0
8.1 1 0
8.4 1 0
8.7 1 0
9 1 0
9.3 1 0
9.6 1 0
9.9 1 0
10.2 1 0
10.5 1 0
10.8 1 0
11.1 1 0
11.4 1 0
11.7 1 0
12 1 0
12.3 1 0
12.6 1 0
12.9 1 0
13.2 1 0
13.5 1 0
13.8 1 0
14.1 1 0
14.4 1 0
14.7 1 0
15 1 0
15.3 1 0
15.6 1 0
15.9 1 0
16.2 1 0
16.5 1 0
16.8 1 0
17.1 1 0
17.4 1 0
17.7 1 0
18 1 0
18.3 1 0
18.6 1 0
18.9 1 0
19.2 1 0
19.5 1 0
19.8 1 0
20.1 1 0
20.4 1 0
20.7 1 0
21 1 0
21.3 1 0
21.6 1 0
21.9 1 0
22.2 1 0
22.5 1 0
22.8 1 0
23.1 1 0
23.4 1 0
23.7 1 0
24 1 0
24.3 1 0
24.6 1 0
24.9 1 0
25.2 1 0
25.5 1 0
25.8 1 0
26.1 1 0
26.4 1 0
26.7 1 0
27 1 0
27.3 1 0
27.6 1 0
27.9 1 0
28.2 1 0
28.5 1 0
28.8 1 0
29.1 1 0
29.4 1 0
29.7 1 0
30 1 0

POINT_DATA 1111

SCALARS p double
LOOKUP_TABLE default
1.54198
1.54198
1.47326
1.42256
1.37572
1.33228
1.29262
1.25673
1.22426
1.19467
1.16744
1.14209
1.11825
1.0956
1.07392
1.05303
1.03281
1.01317
0.994042
0.97539
0.957182
0.939393
0.922
0.904976
0.888285
0.871886
0.855733
0.83978
0.823981
0.808295
0.79269
0.777139
0.761623
0.746129
0.730647
0.715173
0.699702
0.684233
0.668765
0.653297
0.637829
0.622362
0.606894
0.591426
0.575959
0.560491
0.545023
0.529555
0.514088
0.49862
0.483152
0.467685
0.452217
0.436749
0.421281
0.405814
0.390346
0.374878
0.35941
0.343943
0.328475
0.313007
0.297539
0.282072
0.266604
0.251136
0.235668
0.220201
0.204733
0.189265
0.173798
0.15833
0.142862
0.127394
0.111927
0.0964589
0.0809912
0.0655235
0.0500558
0.0345881
0.0191203
0.00365262
-0.0118151
-0.0272828
-0.0427505
-0.0582182
-0.073686
-0.0891537
-0.104621
-0.120089
-0.135557
-0.151025
-0.166492
-0.18196
-0.197428
-0.212895
-0.228363
-0.243831
-0.259297
-0.274737
0.274737
1.54198
1.54198
1.47326
1.42256
1.37572
1.33228
1.29262
1.25673
1.22426
1.19467
1.16744
1.14209
1.11825
1.0956
1.07392
1.05303
1.03281
1.01317
0.994042
0.97539
0.957182
0.939393
0.922
0.904976
0.888285
0.871886
0.855733
0.83978
0.823981
0.808295
0.79269
0.777139
0.761623
0.746129
0.730647
0.715173
0.699702
0.684233
0.668765
0.653297
0.637829
0.622362
0.606894
0.591426
0.575959
0.560491
0.545023
0.529555
0.514088
0.49862
0.483152
0.467685
0.452217
0.436749
0.421281
0.405814
0.390346
0.374878
0.35941
0.343943
0.328475
0.313007
0.297539
0.282072
0.266604
0.251136
0.235668
0.220201
0.204733
0.189265
0.173798
0.15833
0.142862
0.127394
0.111927
0.0964589
0.0809912
0.0655235
0.0500558
0.0345881
0.0191203
0.00365262
-0.0118151
-0.0272828
-0.0427505
-0.0582182
-0.073686
-0.0891537
-0.104621
-0.120089
-0.135557
-0.151025
-0.166492
-0.18196
-0.197428
-0.212895
-0.228363
-0.243831
-0.259297
-0.274737
0.274737
1.52172
1.52172
1.47168
1.42296
1.37644
1.33301
1.29327
1.25728
1.22469
1.19501
1.1677
1.1423
1.11841
1.09573
1.07402
1.05311
1.03288
1.01322
0.994089
0.975428
0.957211
0.939414
0.922014
0.904984
0.888289
0.871887
0.855733
0.839778
0.823979
0.808293
0.792688
0.777138
0.761622
0.746128
0.730647
0.715173
0.699702
0.684233
0.668765
0.653297
0.637829
0.622362
0.606894
0.591426
0.575959
0.560491
0.545023
0.529555
0.514088
0.49862
0.483152
0.467685
0.452217
0.436749
0.421281
0.405814
0.390346
0.374878
0.35941
0.343943
0.328475
0.313007
0.297539
0.282072
0.266604
0.251136
0.235668
0.220201
0.204733
0.189265
0.173798
0.15833
0.142862
0.127394
0.111927
0.0964589
0.0809912
0.0655235
0.0500558
0.0345881
0.0191203
0.00365262
-0.0118151
-0.0272828
-0.0427505
-0.0582182
-0.073686
-0.0891537
-0.104621
-0.120089
-0.135557
-0.151025
-0.166492
-0.18196
-0.197428
-0.212895
-0.228362
-0.24383
-0.259296
-0.274736
0.274736
1.50813
1.50813
1.46961
1.4235
1.37756
1.3342
1.29434
1.25817
1.2254
1.19555
1.16811
1.14261
1.11864
1.09591
1.07416
1.05322
1.03297
1.0133
0.994148
0.975476
0.95725
0.939446
0.922039
0.905003
0.888303
0.871897
0.855739
0.839783
0.823981
0.808295
0.792689
0.777138
0.761622
0.746128
0.730647
0.715173
0.699702
0.684233
0.668765
0.653297
0.637829
0.622362
0.606894
0.591426
0.575959
0.560491
0.545023
0.529555
0.514088
0.49862
0.483152
0.467685
0.452217
0.436749
0.421281
0.405814
0.390346
0.374878
0.35941
0.343943
0.328475
0.313007
0.297539
0.282072
0.266604
0.251136
0.235668
0.220201
0.204733
0.189265
0.173798
0.15833
0.142862
0.127394
0.111927
0.0964589
0.0809912
0.0655235
0.0500558
0.0345881
0.0191203
0.00365262
-0.0118151
-0.0272828
-0.0427505
-0.0582182
-0.073686
-0.0891537
-0.104621
-0.120089
-0.135557
-0.151025
-0.166492
-0.18196
-0.197428
-0.212895
-0.228362
-0.243828
-0.259285
-0.274731
0.274731
1.50063
1.50063
1.46813
1.42387
1.37841
1.33512
1.29519
1.25889
1.22599
1.19602
1.16848
1.14289
1.11887
1.09608
1.0743
1.05334
1.03306
1.01338
0.994216
0.975536
0.957303
0.939492
0.922079
0.905037
0.888331
0.871919
0.855757
0.839795
0.82399
0.808301
0.792693
0.777141
0.761624
0.746129
0.730647
0.715173
0.699702
0.684233
0.668765
0.653297
0.637829
0.622362
0.606894
0.591426
0.575959
0.560491
0.545023
0.529555
0.514088
0.49862
0.483152
0.467685
0.452217
0.436749
0.421281
0.405814
0.390346
0.374878
0.35941
0.343943
0.328475
0.313007
0.297539
0.282072
0.266604
0.251136
0.235668
0.220201
0.204733
0.189265
0.173798
0.15833
0.142862
0.127394
0.111927
0.0964589
0.0809912
0.0655235
0.0500558
0.0345881
0.0191203
0.00365262
-0.0118151
-0.0272828
-0.0427505
-0.0582182
-0.073686
-0.0891537
-0.104621
-0.120089
-0.135557
-0.151025
-0.166492
-0.18196
-0.197428
-0.212895
-0.228361
-0.243825
-0.259267
-0.274724
0.274724
1.49825
1.49825
1.46763
1.42402
1.37873
1.33546
1.29551
1.25917
1.22622
1.19621
1.16863
1.14301
1.11896
1.09615
1.07436
1.05338
1.0331
1.01341
0.994248
0.975564
0.957328
0.939515
0.9221
0.905055
0.888346
0.871932
0.855766
0.839803
0.823996
0.808304
0.792696
0.777142
0.761625
0.74613
0.730648
0.715173
0.699702
0.684233
0.668765
0.653297
0.637829
0.622362
0.606894
0.591426
0.575959
0.560491
0.545023
0.529555
0.514088
0.49862
0.483152
0.467685
0.452217
0.436749
0.421281
0.405814
0.390346
0.374878
0.35941
0.343943
0.328475
0.313007
0.297539
0.282072
0.266604
0.251136
0.235668
0.220201
0.204733
0.189265
0.173798
0.15833
0.142862
0.127394
0.111927
0.0964589
0.0809912
0.0655235
0.0500558
0.0345881
0.0191203
0.00365262
-0.0118151
-0.0272828
-0.0427505
-0.0582182
-0.073686
-0.0891537
-0.104621
-0.120089
-0.135557
-0.151025
-0.166492
-0.18196
-0.197428
-0.212895
-0.228361
-0.243824
-0.259259
-0.274721
0.274721
1.50063
1.50063
1.46813
1.42387
1.37841
1.33512
1.29519
1.25889
1.22599
1.19602
1.16848
1.14289
1.11887
1.09608
1.0743
1.05334
1.03306
1.01338
0.994216
0.975536
0.957303
0.939492
0.922079
0.905037
0.888331
0.871919
0.855757
0.839795
0.82399
0.808301
0.792693
0.777141
0.761624
0.746129
0.730647
0.715173
0.699702
0.684233
0.668765
0.653297
0.637829
0.622362
0.606894
0.591426
0.575959
0.560491
0.545023
0.529555
0.514088
0.49862
0.483152
0.467685
0.452217
0.436749
0.421281
0.405814
0.390346
0.374878
0.35941
0.343943
0.328475
0.313007
0.297539
0.282072
0.266604
0.251136
0.235668
0.220201
0.204733
0.189265
0.173798
0.15833
0.142862
0.127394
0.111927
0.0964589
0.0809912
0.0655235
0.0500558
0.0345881
0.0191203
0.00365262
-0.0118151
-0.0272828
-0.0427505
-0.0582182
-0.073686
-0.0891537
-0.104621
-0.120089
-0.135557
-0.151025
-0.166492
-0.18196
-0.197428
-0.212895
-0.228361
-0.243825
-0.259267
-0.274724
0.274724
1.50813
1.50813
1.46961
1.4235
1.37756
1.3342
1.29434
1.25817
1.2254
1.19555
1.16811
1.14261
1.11864
1.09591
1.07416
1.05322
1.03297
1.0133
0.994148
0.975476
0.95725
0.939446
0.922039
0.905003
0.888303
0.871897
0.855739
0.839783
0.823981
0.808295
0.792689
0.777138
0.761622
0.746128
0.730647
0.715173
0.699702
0.684233
0.668765
0.653297
0.637829
0.622362
0.606894
0.591426
0.575959
0.560491
0.545023
0.529555
0.514088
0.49862
0.483152
0.467685
0.452217
0.436749
0.421281
0.405814
0.390346
0.374878
0.35941
0.343943
0.328475
0.313007
0.297539
0.282072
0.266604
0.251136
0.235668
0.220201
0.204733
0.189265
0.173798
0.15833
0.142862
0.127394
0.111927
0.0964589
0.0809912
0.0655235
0.0500558
0.0345881
0.0191203
0.00365262
-0.0118151
-0.0272828
-0.0427505
-0.0582182
-0.073686
-0.0891537
-0.104621
-0.120089
-0.135557
-0.151025
-0.166492
-0.18196
-0.197428
-0.212895
-0.228362
-0.243828
-0.259285
-0.274731
0.274731
1.52172
1.52172
1.47168
1.42296
1.37644
1.33301
1.29327
1.25728
1.22469
1.19501
1.1677
1.1423
1.11841
1.09573
1.07402
1.05311
1.03288
1.01322
0.994089
0.975428
0.957211
0.939414
0.922014
0.904984
0.888289
0.871887
0.855733
0.839778
0.823979
0.808293
0.792688
0.777138
0.761622
0.746128
0.730647
0.715173
0.699702
0.684233
0.668765
0.653297
0.637829
0.622362
0.606894
0.591426
0.575959
0.560491
0.545023
0.529555
0.514088
0.49862
0.483152
0.467685
0.452217
0.436749
0.421281
0.405814
0.390346
0.374878
0.35941
0.343943
0.328475
0.313007
0.297539
0.282072
0.266604
0.251136
0.235668
0.220201
0.204733
0.189265
0.173798
0.15833
0.142862
0.127394
0.111927
0.0964589
0.0809912
0.0655235
0.0500558
0.0345881
0.0191203
0.00365262
-0.0118151
-0.0272828
-0.0427505
-0.0582182
-0.073686
-0.0891537
-0.104621
-0.120089
-0.135557
-0.151025
-0.166492
-0.18196
-0.197428
-0.212895
-0.228362
-0.24383
-0.259296
-0.274736
0.274736
1.54198
1.54198
1.47326
1.42256
1.37572
1.33228
1.29262
1.25673
1.22426
1.19467
1.16744
1.14209
1.11825
1.0956
1.07392
1.05303
1.03281
1.01317
0.994042
0.97539
0.957182
0.939393
0.922
0.904976
0.888285
0.871886
0.855733
0.83978
0.823981
0.808295
0.79269
0.777139
0.761623
0.746129
0.730647
0.715173
0.699702
0.684233
0.668765
0.653297
0.637829
0.622362
0.606894
0.591426
0.575959
0.560491
0.545023
0.529555
0.514088
0.49862
0.483152
0.467685
0.452217
0.436749
0.421281
0.405814
0.390346
0.374878
0.35941
0.343943
0.328475
0.313007
0.297539
0.282072
0.266604
0.251136
0.235668
0.220201
0.204733
0.189265
0.173798
0.15833
0.142862
0.127394
0.111927
0.0964589
0.0809912
0.0655235
0.0500558
0.0345881
0.0191203
0.00365262
-0.0118151
-0.0272828
-0.0427505
-0.0582182
-0.073686
-0.0891537
-0.104621
-0.120089
-0.135557
-0.151025
-0.166492
-0.18196
-0.197428
-0.212895
-0.228363
-0.243831
-0.259297
-0.274737
0.274737
1.54198
1.54198
1.47326
1.42256
1.37572
1.33228
1.29262
1.25673
1.22426
1.19467
1.16744
1.14209
1.11825
1.0956
1.07392
1.05303
1.03281
1.01317
0.994042
0.97539
0.957182
0.939393
0.922
0.904976
0.888285
0.871886
0.855733
0.83978
0.823981
0.808295
0.79269
0.777139
0.761623
0.746129
0.730647
0.715173
0.699702
0.684233
0.668765
0.653297
0.637829
0.622362
0.606894
0.591426
0.575959
0.560491
0.545023
0.529555
0.514088
0.49862
0.483152
0.467685
0.452217
0.436749
0.421281
0.405814
0.390346
0.374878
0.35941
0.343943
0.328475
0.313007
0.297539
0.282072
0.266604
0.251136
0.235668
0.220201
0.204733
0.189265
0.173798
0.15833
0.142862
0.127394
0.111927
0.0964589
0.0809912
0.0655235
0.0500558
0.0345881
0.0191203
0.00365262
-0.0118151
-0.0272828
-0.0427505
-0.0582182
-0.073686
-0.0891537
-0.104621
-0.120089
-0.135557
-0.151025
-0.166492
-0.18196
-0.197428
-0.212895
-0.228363
-0.243831
-0.259297
-0.274737
0.274737
