# vtk DataFile Version 2.0
FlowField
ASCII
DATASET STRUCTURED_GRID
DIMENSIONS 101 11 1 
POINTS 1111 double
0 0 0
0.3 0 0
0.6 0 0
0.9 0 0
1.2 0 0
1.5 0 0
1.8 0 0
2.1 0 0
2.4 0 0
2.7 0 0
3 0 0
3.3 0 0
3.6 0 0
3.9 0 0
4.2 0 0
4.5 0 0
4.8 0 0
5.1 0 0
5.4 0 0
5.7 0 0
6 0 0
6.3 0 0
6.6 0 0
6.9 0 0
7.2 0 0
7.5 0 0
7.8 0 0
8.1 0 0
8.4 0 0
8.7 0 0
9 0 0
9.3 0 0
9.6 0 0
9.9 0 0
10.2 0 0
10.5 0 0
10.8 0 0
11.1 0 0
11.4 0 0
11.7 0 0
12 0 0
12.3 0 0
12.6 0 0
12.9 0 0
13.2 0 0
13.5 0 0
13.8 0 0
14.1 0 0
14.4 0 0
14.7 0 0
15 0 0
15.3 0 0
15.6 0 0
15.9 0 0
16.2 0 0
16.5 0 0
16.8 0 0
17.1 0 0
17.4 0 0
17.7 0 0
18 0 0
18.3 0 0
18.6 0 0
18.9 0 0
19.2 0 0
19.5 0 0
19.8 0 0
20.1 0 0
20.4 0 0
20.7 0 0
21 0 0
21.3 0 0
21.6 0 0
21.9 0 0
22.2 0 0
22.5 0 0
22.8 0 0
23.1 0 0
23.4 0 0
23.7 0 0
24 0 0
24.3 0 0
24.6 0 0
24.9 0 0
25.2 0 0
25.5 0 0
25.8 0 0
26.1 0 0
26.4 0 0
26.7 0 0
27 0 0
27.3 0 0
27.6 0 0
27.9 0 0
28.2 0 0
28.5 0 0
28.8 0 0
29.1 0 0
29.4 0 0
29.7 0 0
30 0 0
0 0.1 0
0.3 0.1 0
0.6 0.1 0
0.9 0.1 0
1.2 0.1 0
1.5 0.1 0
1.8 0.1 0
2.1 0.1 0
2.4 0.1 0
2.7 0.1 0
3 0.1 0
3.3 0.1 0
3.6 0.1 0
3.9 0.1 0
4.2 0.1 0
4.5 0.1 0
4.8 0.1 0
5.1 0.1 0
5.4 0.1 0
5.7 0.1 0
6 0.1 0
6.3 0.1 0
6.6 0.1 0
6.9 0.1 0
7.2 0.1 0
7.5 0.1 0
7.8 0.1 0
8.1 0.1 0
8.4 0.1 0
8.7 0.1 0
9 0.1 0
9.3 0.1 0
9.6 0.1 0
9.9 0.1 0
10.2 0.1 0
10.5 0.1 0
10.8 0.1 0
11.1 0.1 0
11.4 0.1 0
11.7 0.1 0
12 0.1 0
12.3 0.1 0
12.6 0.1 0
12.9 0.1 0
13.2 0.1 0
13.5 0.1 0
13.8 0.1 0
14.1 0.1 0
14.4 0.1 0
14.7 0.1 0
15 0.1 0
15.3 0.1 0
15.6 0.1 0
15.9 0.1 0
16.2 0.1 0
16.5 0.1 0
16.8 0.1 0
17.1 0.1 0
17.4 0.1 0
17.7 0.1 0
18 0.1 0
18.3 0.1 0
18.6 0.1 0
18.9 0.1 0
19.2 0.1 0
19.5 0.1 0
19.8 0.1 0
20.1 0.1 0
20.4 0.1 0
20.7 0.1 0
21 0.1 0
21.3 0.1 0
21.6 0.1 0
21.9 0.1 0
22.2 0.1 0
22.5 0.1 0
22.8 0.1 0
23.1 0.1 0
23.4 0.1 0
23.7 0.1 0
24 0.1 0
24.3 0.1 0
24.6 0.1 0
24.9 0.1 0
25.2 0.1 0
25.5 0.1 0
25.8 0.1 0
26.1 0.1 0
26.4 0.1 0
26.7 0.1 0
27 0.1 0
27.3 0.1 0
27.6 0.1 0
27.9 0.1 0
28.2 0.1 0
28.5 0.1 0
28.8 0.1 0
29.1 0.1 0
29.4 0.1 0
29.7 0.1 0
30 0.1 0
0 0.2 0
0.3 0.2 0
0.6 0.2 0
0.9 0.2 0
1.2 0.2 0
1.5 0.2 0
1.8 0.2 0
2.1 0.2 0
2.4 0.2 0
2.7 0.2 0
3 0.2 0
3.3 0.2 0
3.6 0.2 0
3.9 0.2 0
4.2 0.2 0
4.5 0.2 0
4.8 0.2 0
5.1 0.2 0
5.4 0.2 0
5.7 0.2 0
6 0.2 0
6.3 0.2 0
6.6 0.2 0
6.9 0.2 0
7.2 0.2 0
7.5 0.2 0
7.8 0.2 0
8.1 0.2 0
8.4 0.2 0
8.7 0.2 0
9 0.2 0
9.3 0.2 0
9.6 0.2 0
9.9 0.2 0
10.2 0.2 0
10.5 0.2 0
10.8 0.2 0
11.1 0.2 0
11.4 0.2 0
11.7 0.2 0
12 0.2 0
12.3 0.2 0
12.6 0.2 0
12.9 0.2 0
13.2 0.2 0
13.5 0.2 0
13.8 0.2 0
14.1 0.2 0
14.4 0.2 0
14.7 0.2 0
15 0.2 0
15.3 0.2 0
15.6 0.2 0
15.9 0.2 0
16.2 0.2 0
16.5 0.2 0
16.8 0.2 0
17.1 0.2 0
17.4 0.2 0
17.7 0.2 0
18 0.2 0
18.3 0.2 0
18.6 0.2 0
18.9 0.2 0
19.2 0.2 0
19.5 0.2 0
19.8 0.2 0
20.1 0.2 0
20.4 0.2 0
20.7 0.2 0
21 0.2 0
21.3 0.2 0
21.6 0.2 0
21.9 0.2 0
22.2 0.2 0
22.5 0.2 0
22.8 0.2 0
23.1 0.2 0
23.4 0.2 0
23.7 0.2 0
24 0.2 0
24.3 0.2 0
24.6 0.2 0
24.9 0.2 0
25.2 0.2 0
25.5 0.2 0
25.8 0.2 0
26.1 0.2 0
26.4 0.2 0
26.7 0.2 0
27 0.2 0
27.3 0.2 0
27.6 0.2 0
27.9 0.2 0
28.2 0.2 0
28.5 0.2 0
28.8 0.2 0
29.1 0.2 0
29.4 0.2 0
29.7 0.2 0
30 0.2 0
0 0.3 0
0.3 0.3 0
0.6 0.3 0
0.9 0.3 0
1.2 0.3 0
1.5 0.3 0
1.8 0.3 0
2.1 0.3 0
2.4 0.3 0
2.7 0.3 0
3 0.3 0
3.3 0.3 0
3.6 0.3 0
3.9 0.3 0
4.2 0.3 0
4.5 0.3 0
4.8 0.3 0
5.1 0.3 0
5.4 0.3 0
5.7 0.3 0
6 0.3 0
6.3 0.3 0
6.6 0.3 0
6.9 0.3 0
7.2 0.3 0
7.5 0.3 0
7.8 0.3 0
8.1 0.3 0
8.4 0.3 0
8.7 0.3 0
9 0.3 0
9.3 0.3 0
9.6 0.3 0
9.9 0.3 0
10.2 0.3 0
10.5 0.3 0
10.8 0.3 0
11.1 0.3 0
11.4 0.3 0
11.7 0.3 0
12 0.3 0
12.3 0.3 0
12.6 0.3 0
12.9 0.3 0
13.2 0.3 0
13.5 0.3 0
13.8 0.3 0
14.1 0.3 0
14.4 0.3 0
14.7 0.3 0
15 0.3 0
15.3 0.3 0
15.6 0.3 0
15.9 0.3 0
16.2 0.3 0
16.5 0.3 0
16.8 0.3 0
17.1 0.3 0
17.4 0.3 0
17.7 0.3 0
18 0.3 0
18.3 0.3 0
18.6 0.3 0
18.9 0.3 0
19.2 0.3 0
19.5 0.3 0
19.8 0.3 0
20.1 0.3 0
20.4 0.3 0
20.7 0.3 0
21 0.3 0
21.3 0.3 0
21.6 0.3 0
21.9 0.3 0
22.2 0.3 0
22.5 0.3 0
22.8 0.3 0
23.1 0.3 0
23.4 0.3 0
23.7 0.3 0
24 0.3 0
24.3 0.3 0
24.6 0.3 0
24.9 0.3 0
25.2 0.3 0
25.5 0.3 0
25.8 0.3 0
26.1 0.3 0
26.4 0.3 0
26.7 0.3 0
27 0.3 0
27.3 0.3 0
27.6 0.3 0
27.9 0.3 0
28.2 0.3 0
28.5 0.3 0
28.8 0.3 0
29.1 0.3 0
29.4 0.3 0
29.7 0.3 0
30 0.3 0
0 0.4 0
0.3 0.4 0
0.6 0.4 0
0.9 0.4 0
1.2 0.4 0
1.5 0.4 0
1.8 0.4 0
2.1 0.4 0
2.4 0.4 0
2.7 0.4 0
3 0.4 0
3.3 0.4 0
3.6 0.4 0
3.9 0.4 0
4.2 0.4 0
4.5 0.4 0
4.8 0.4 0
5.1 0.4 0
5.4 0.4 0
5.7 0.4 0
6 0.4 0
6.3 0.4 0
6.6 0.4 0
6.9 0.4 0
7.2 0.4 0
7.5 0.4 0
7.8 0.4 0
8.1 0.4 0
8.4 0.4 0
8.7 0.4 0
9 0.4 0
9.3 0.4 0
9.6 0.4 0
9.9 0.4 0
10.2 0.4 0
10.5 0.4 0
10.8 0.4 0
11.1 0.4 0
11.4 0.4 0
11.7 0.4 0
12 0.4 0
12.3 0.4 0
12.6 0.4 0
12.9 0.4 0
13.2 0.4 0
13.5 0.4 0
13.8 0.4 0
14.1 0.4 0
14.4 0.4 0
14.7 0.4 0
15 0.4 0
15.3 0.4 0
15.6 0.4 0
15.9 0.4 0
16.2 0.4 0
16.5 0.4 0
16.8 0.4 0
17.1 0.4 0
17.4 0.4 0
17.7 0.4 0
18 0.4 0
18.3 0.4 0
18.6 0.4 0
18.9 0.4 0
19.2 0.4 0
19.5 0.4 0
19.8 0.4 0
20.1 0.4 0
20.4 0.4 0
20.7 0.4 0
21 0.4 0
21.3 0.4 0
21.6 0.4 0
21.9 0.4 0
22.2 0.4 0
22.5 0.4 0
22.8 0.4 0
23.1 0.4 0
23.4 0.4 0
23.7 0.4 0
24 0.4 0
24.3 0.4 0
24.6 0.4 0
24.9 0.4 0
25.2 0.4 0
25.5 0.4 0
25.8 0.4 0
26.1 0.4 0
26.4 0.4 0
26.7 0.4 0
27 0.4 0
27.3 0.4 0
27.6 0.4 0
27.9 0.4 0
28.2 0.4 0
28.5 0.4 0
28.8 0.4 0
29.1 0.4 0
29.4 0.4 0
29.7 0.4 0
30 0.4 0
0 0.5 0
0.3 0.5 0
0.6 0.5 0
0.9 0.5 0
1.2 0.5 0
1.5 0.5 0
1.8 0.5 0
2.1 0.5 0
2.4 0.5 0
2.7 0.5 0
3 0.5 0
3.3 0.5 0
3.6 0.5 0
3.9 0.5 0
4.2 0.5 0
4.5 0.5 0
4.8 0.5 0
5.1 0.5 0
5.4 0.5 0
5.7 0.5 0
6 0.5 0
6.3 0.5 0
6.6 0.5 0
6.9 0.5 0
7.2 0.5 0
7.5 0.5 0
7.8 0.5 0
8.1 0.5 0
8.4 0.5 0
8.7 0.5 0
9 0.5 0
9.3 0.5 0
9.6 0.5 0
9.9 0.5 0
10.2 0.5 0
10.5 0.5 0
10.8 0.5 0
11.1 0.5 0
11.4 0.5 0
11.7 0.5 0
12 0.5 0
12.3 0.5 0
12.6 0.5 0
12.9 0.5 0
13.2 0.5 0
13.5 0.5 0
13.8 0.5 0
14.1 0.5 0
14.4 0.5 0
14.7 0.5 0
15 0.5 0
15.3 0.5 0
15.6 0.5 0
15.9 0.5 0
16.2 0.5 0
16.5 0.5 0
16.8 0.5 0
17.1 0.5 0
17.4 0.5 0
17.7 0.5 0
18 0.5 0
18.3 0.5 0
18.6 0.5 0
18.9 0.5 0
19.2 0.5 0
19.5 0.5 0
19.8 0.5 0
20.1 0.5 0
20.4 0.5 0
20.7 0.5 0
21 0.5 0
21.3 0.5 0
21.6 0.5 0
21.9 0.5 0
22.2 0.5 0
22.5 0.5 0
22.8 0.5 0
23.1 0.5 0
23.4 0.5 0
23.7 0.5 0
24 0.5 0
24.3 0.5 0
24.6 0.5 0
24.9 0.5 0
25.2 0.5 0
25.5 0.5 0
25.8 0.5 0
26.1 0.5 0
26.4 0.5 0
26.7 0.5 0
27 0.5 0
27.3 0.5 0
27.6 0.5 0
27.9 0.5 0
28.2 0.5 0
28.5 0.5 0
28.8 0.5 0
29.1 0.5 0
29.4 0.5 0
29.7 0.5 0
30 0.5 0
0 0.6 0
0.3 0.6 0
0.6 0.6 0
0.9 0.6 0
1.2 0.6 0
1.5 0.6 0
1.8 0.6 0
2.1 0.6 0
2.4 0.6 0
2.7 0.6 0
3 0.6 0
3.3 0.6 0
3.6 0.6 0
3.9 0.6 0
4.2 0.6 0
4.5 0.6 0
4.8 0.6 0
5.1 0.6 0
5.4 0.6 0
5.7 0.6 0
6 0.6 0
6.3 0.6 0
6.6 0.6 0
6.9 0.6 0
7.2 0.6 0
7.5 0.6 0
7.8 0.6 0
8.1 0.6 0
8.4 0.6 0
8.7 0.6 0
9 0.6 0
9.3 0.6 0
9.6 0.6 0
9.9 0.6 0
10.2 0.6 0
10.5 0.6 0
10.8 0.6 0
11.1 0.6 0
11.4 0.6 0
11.7 0.6 0
12 0.6 0
12.3 0.6 0
12.6 0.6 0
12.9 0.6 0
13.2 0.6 0
13.5 0.6 0
13.8 0.6 0
14.1 0.6 0
14.4 0.6 0
14.7 0.6 0
15 0.6 0
15.3 0.6 0
15.6 0.6 0
15.9 0.6 0
16.2 0.6 0
16.5 0.6 0
16.8 0.6 0
17.1 0.6 0
17.4 0.6 0
17.7 0.6 0
18 0.6 0
18.3 0.6 0
18.6 0.6 0
18.9 0.6 0
19.2 0.6 0
19.5 0.6 0
19.8 0.6 0
20.1 0.6 0
20.4 0.6 0
20.7 0.6 0
21 0.6 0
21.3 0.6 0
21.6 0.6 0
21.9 0.6 0
22.2 0.6 0
22.5 0.6 0
22.8 0.6 0
23.1 0.6 0
23.4 0.6 0
23.7 0.6 0
24 0.6 0
24.3 0.6 0
24.6 0.6 0
24.9 0.6 0
25.2 0.6 0
25.5 0.6 0
25.8 0.6 0
26.1 0.6 0
26.4 0.6 0
26.7 0.6 0
27 0.6 0
27.3 0.6 0
27.6 0.6 0
27.9 0.6 0
28.2 0.6 0
28.5 0.6 0
28.8 0.6 0
29.1 0.6 0
29.4 0.6 0
29.7 0.6 0
30 0.6 0
0 0.7 0
0.3 0.7 0
0.6 0.7 0
0.9 0.7 0
1.2 0.7 0
1.5 0.7 0
1.8 0.7 0
2.1 0.7 0
2.4 0.7 0
2.7 0.7 0
3 0.7 0
3.3 0.7 0
3.6 0.7 0
3.9 0.7 0
4.2 0.7 0
4.5 0.7 0
4.8 0.7 0
5.1 0.7 0
5.4 0.7 0
5.7 0.7 0
6 0.7 0
6.3 0.7 0
6.6 0.7 0
6.9 0.7 0
7.2 0.7 0
7.5 0.7 0
7.8 0.7 0
8.1 0.7 0
8.4 0.7 0
8.7 0.7 0
9 0.7 0
9.3 0.7 0
9.6 0.7 0
9.9 0.7 0
10.2 0.7 0
10.5 0.7 0
10.8 0.7 0
11.1 0.7 0
11.4 0.7 0
11.7 0.7 0
12 0.7 0
12.3 0.7 0
12.6 0.7 0
12.9 0.7 0
13.2 0.7 0
13.5 0.7 0
13.8 0.7 0
14.1 0.7 0
14.4 0.7 0
14.7 0.7 0
15 0.7 0
15.3 0.7 0
15.6 0.7 0
15.9 0.7 0
16.2 0.7 0
16.5 0.7 0
16.8 0.7 0
17.1 0.7 0
17.4 0.7 0
17.7 0.7 0
18 0.7 0
18.3 0.7 0
18.6 0.7 0
18.9 0.7 0
19.2 0.7 0
19.5 0.7 0
19.8 0.7 0
20.1 0.7 0
20.4 0.7 0
20.7 0.7 0
21 0.7 0
21.3 0.7 0
21.6 0.7 0
21.9 0.7 0
22.2 0.7 0
22.5 0.7 0
22.8 0.7 0
23.1 0.7 0
23.4 0.7 0
23.7 0.7 0
24 0.7 0
24.3 0.7 0
24.6 0.7 0
24.9 0.7 0
25.2 0.7 0
25.5 0.7 0
25.8 0.7 0
26.1 0.7 0
26.4 0.7 0
26.7 0.7 0
27 0.7 0
27.3 0.7 0
27.6 0.7 0
27.9 0.7 0
28.2 0.7 0
28.5 0.7 0
28.8 0.7 0
29.1 0.7 0
29.4 0.7 0
29.7 0.7 0
30 0.7 0
0 0.8 0
0.3 0.8 0
0.6 0.8 0
0.9 0.8 0
1.2 0.8 0
1.5 0.8 0
1.8 0.8 0
2.1 0.8 0
2.4 0.8 0
2.7 0.8 0
3 0.8 0
3.3 0.8 0
3.6 0.8 0
3.9 0.8 0
4.2 0.8 0
4.5 0.8 0
4.8 0.8 0
5.1 0.8 0
5.4 0.8 0
5.7 0.8 0
6 0.8 0
6.3 0.8 0
6.6 0.8 0
6.9 0.8 0
7.2 0.8 0
7.5 0.8 0
7.8 0.8 0
8.1 0.8 0
8.4 0.8 0
8.7 0.8 0
9 0.8 0
9.3 0.8 0
9.6 0.8 0
9.9 0.8 0
10.2 0.8 0
10.5 0.8 0
10.8 0.8 0
11.1 0.8 0
11.4 0.8 0
11.7 0.8 0
12 0.8 0
12.3 0.8 0
12.6 0.8 0
12.9 0.8 0
13.2 0.8 0
13.5 0.8 0
13.8 0.8 0
14.1 0.8 0
14.4 0.8 0
14.7 0.8 0
15 0.8 0
15.3 0.8 0
15.6 0.8 0
15.9 0.8 0
16.2 0.8 0
16.5 0.8 0
16.8 0.8 0
17.1 0.8 0
17.4 0.8 0
17.7 0.8 0
18 0.8 0
18.3 0.8 0
18.6 0.8 0
18.9 0.8 0
19.2 0.8 0
19.5 0.8 0
19.8 0.8 0
20.1 0.8 0
20.4 0.8 0
20.7 0.8 0
21 0.8 0
21.3 0.8 0
21.6 0.8 0
21.9 0.8 0
22.2 0.8 0
22.5 0.8 0
22.8 0.8 0
23.1 0.8 0
23.4 0.8 0
23.7 0.8 0
24 0.8 0
24.3 0.8 0
24.6 0.8 0
24.9 0.8 0
25.2 0.8 0
25.5 0.8 0
25.8 0.8 0
26.1 0.8 0
26.4 0.8 0
26.7 0.8 0
27 0.8 0
27.3 0.8 0
27.6 0.8 0
27.9 0.8 0
28.2 0.8 0
28.5 0.8 0
28.8 0.8 0
29.1 0.8 0
29.4 0.8 0
29.7 0.8 0
30 0.8 0
0 0.9 0
0.3 0.9 0
0.6 0.9 0
0.9 0.9 0
1.2 0.9 0
1.5 0.9 0
1.8 0.9 0
2.1 0.9 0
2.4 0.9 0
2.7 0.9 0
3 0.9 0
3.3 0.9 0
3.6 0.9 0
3.9 0.9 0
4.2 0.9 0
4.5 0.9 0
4.8 0.9 0
5.1 0.9 0
5.4 0.9 0
5.7 0.9 0
6 0.9 0
6.3 0.9 0
6.6 0.9 0
6.9 0.9 0
7.2 0.9 0
7.5 0.9 0
7.8 0.9 0
8.1 0.9 0
8.4 0.9 0
8.7 0.9 0
9 0.9 0
9.3 0.9 0
9.6 0.9 0
9.9 0.9 0
10.2 0.9 0
10.5 0.9 0
10.8 0.9 0
11.1 0.9 0
11.4 0.9 0
11.7 0.9 0
12 0.9 0
12.3 0.9 0
12.6 0.9 0
12.9 0.9 0
13.2 0.9 0
13.5 0.9 0
13.8 0.9 0
14.1 0.9 0
14.4 0.9 0
14.7 0.9 0
15 0.9 0
15.3 0.9 0
15.6 0.9 0
15.9 0.9 0
16.2 0.9 0
16.5 0.9 0
16.8 0.9 0
17.1 0.9 0
17.4 0.9 0
17.7 0.9 0
18 0.9 0
18.3 0.9 0
18.6 0.9 0
18.9 0.9 0
19.2 0.9 0
19.5 0.9 0
19.8 0.9 0
20.1 0.9 0
20.4 0.9 0
20.7 0.9 0
21 0.9 0
21.3 0.9 0
21.6 0.9 0
21.9 0.9 0
22.2 0.9 0
22.5 0.9 0
22.8 0.9 0
23.1 0.9 0
23.4 0.9 0
23.7 0.9 0
24 0.9 0
24.3 0.9 0
24.6 0.9 0
24.9 0.9 0
25.2 0.9 0
25.5 0.9 0
25.8 0.9 0
26.1 0.9 0
26.4 0.9 0
26.7 0.9 0
27 0.9 0
27.3 0.9 0
27.6 0.9 0
27.9 0.9 0
28.2 0.9 0
28.5 0.9 0
28.8 0.9 0
29.1 0.9 0
29.4 0.9 0
29.7 0.9 0
30 0.9 0
0 1 0
0.3 1 0
0.6 1 0
0.9 1 0
1.2 1 0
1.5 1 0
1.8 1 0
2.1 1 0
2.4 1 0
2.7 1 0
3 1 0
3.3 1 0
3.6 1 0
3.9 1 0
4.2 1 0
4.5 1 0
4.8 1 0
5.1 1 0
5.4 1 0
5.7 1 0
6 1 0
6.3 1 0
6.6 1 0
6.9 1 0
7.2 1 0
7.5 1 0
7.8 1 0
8.1 1 0
8.4 1 0
8.7 1 0
9 1 0
9.3 1 0
9.6 1 0
9.9 1 0
10.2 1 0
10.5 1 0
10.8 1 0
11.1 1 0
11.4 1 0
11.7 1 0
12 1 0
12.3 1 0
12.6 1 0
12.9 1 0
13.2 1 0
13.5 1 0
13.8 1 0
14.1 1 0
14.4 1 0
14.7 1 0
15 1 0
15.3 1 0
15.6 1 0
15.9 1 0
16.2 1 0
16.5 1 0
16.8 1 0
17.1 1 0
17.4 1 0
17.7 1 0
18 1 0
18.3 1 0
18.6 1 0
18.9 1 0
19.2 1 0
19.5 1 0
19.8 1 0
20.1 1 0
20.4 1 0
20.7 1 0
21 1 0
21.3 1 0
21.6 1 0
21.9 1 0
22.2 1 0
22.5 1 0
22.8 1 0
23.1 1 0
23.4 1 0
23.7 1 0
24 1 0
24.3 1 0
24.6 1 0
24.9 1 0
25.2 1 0
25.5 1 0
25.8 1 0
26.1 1 0
26.4 1 0
26.7 1 0
27 1 0
27.3 1 0
27.6 1 0
27.9 1 0
28.2 1 0
28.5 1 0
28.8 1 0
29.1 1 0
29.4 1 0
29.7 1 0
30 1 0

POINT_DATA 1111

SCALARS p double
LOOKUP_TABLE default
1.68252
1.68252
1.61379
1.56309
1.51626
1.47281
1.43313
1.39724
1.36499
1.33611
1.31025
1.28695
1.26562
1.24566
1.22659
1.20801
1.18968
1.17146
1.15328
1.1351
1.11692
1.09873
1.08054
1.06235
1.04415
1.02596
1.00777
0.989574
0.971381
0.953188
0.934994
0.916801
0.898608
0.880415
0.862221
0.844028
0.825835
0.807642
0.789448
0.771255
0.753062
0.734869
0.716675
0.698482
0.680289
0.662096
0.643902
0.625709
0.607516
0.589323
0.571129
0.552936
0.534743
0.51655
0.498356
0.480163
0.46197
0.443777
0.425583
0.40739
0.389197
0.371004
0.35281
0.334617
0.316424
0.298231
0.280037
0.261844
0.243651
0.225457
0.207264
0.189071
0.170878
0.152684
0.134491
0.116298
0.0981044
0.0799111
0.0617178
0.0435245
0.0253312
0.00713788
-0.0110554
-0.0292488
-0.0474421
-0.0656354
-0.0838288
-0.102022
-0.120215
-0.138409
-0.156602
-0.174796
-0.192989
-0.211182
-0.229375
-0.247569
-0.265761
-0.283956
-0.302135
-0.320222
0.320222
1.68252
1.68252
1.61379
1.56309
1.51626
1.47281
1.43313
1.39724
1.36499
1.33611
1.31025
1.28695
1.26562
1.24566
1.22659
1.20801
1.18968
1.17146
1.15328
1.1351
1.11692
1.09873
1.08054
1.06235
1.04415
1.02596
1.00777
0.989574
0.971381
0.953188
0.934994
0.916801
0.898608
0.880415
0.862221
0.844028
0.825835
0.807642
0.789448
0.771255
0.753062
0.734869
0.716675
0.698482
0.680289
0.662096
0.643902
0.625709
0.607516
0.589323
0.571129
0.552936
0.534743
0.51655
0.498356
0.480163
0.46197
0.443777
0.425583
0.40739
0.389197
0.371004
0.35281
0.334617
0.316424
0.298231
0.280037
0.261844
0.243651
0.225457
0.207264
0.189071
0.170878
0.152684
0.134491
0.116298
0.0981044
0.0799111
0.0617178
0.0435245
0.0253312
0.00713788
-0.0110554
-0.0292488
-0.0474421
-0.0656354
-0.0838288
-0.102022
-0.120215
-0.138409
-0.156602
-0.174796
-0.192989
-0.211182
-0.229375
-0.247569
-0.265761
-0.283956
-0.302135
-0.320222
0.320222
1.66226
1.66226
1.61222
1.56349
1.51698
1.47355
1.43378
1.39778
1.3654
1.33639
1.31044
1.28705
1.26567
1.24569
1.22659
1.20801
1.18968
1.17146
1.15328
1.1351
1.11692
1.09873
1.08054
1.06235
1.04415
1.02596
1.00777
0.989574
0.971381
0.953188
0.934994
0.916801
0.898608
0.880415
0.862221
0.844028
0.825835
0.807642
0.789448
0.771255
0.753062
0.734869
0.716675
0.698482
0.680289
0.662096
0.643902
0.625709
0.607516
0.589323
0.571129
0.552936
0.534743
0.51655
0.498356
0.480163
0.46197
0.443777
0.425583
0.40739
0.389197
0.371004
0.35281
0.334617
0.316424
0.298231
0.280037
0.261844
0.243651
0.225457
0.207264
0.189071
0.170878
0.152684
0.134491
0.116298
0.0981044
0.0799111
0.0617178
0.0435245
0.0253312
0.00713788
-0.0110554
-0.0292488
-0.0474421
-0.0656354
-0.0838288
-0.102022
-0.120215
-0.138409
-0.156602
-0.174796
-0.192989
-0.211182
-0.229375
-0.247569
-0.265759
-0.283952
-0.302127
-0.320221
0.320221
1.64866
1.64866
1.61015
1.56403
1.5181
1.47473
1.43485
1.39869
1.36614
1.33697
1.31086
1.28734
1.26585
1.24579
1.22665
1.20803
1.18969
1.17146
1.15328
1.1351
1.11691
1.09873
1.08054
1.06235
1.04415
1.02596
1.00777
0.989574
0.971381
0.953188
0.934994
0.916801
0.898608
0.880415
0.862221
0.844028
0.825835
0.807642
0.789448
0.771255
0.753062
0.734869
0.716675
0.698482
0.680289
0.662096
0.643902
0.625709
0.607516
0.589323
0.571129
0.552936
0.534743
0.51655
0.498356
0.480163
0.46197
0.443777
0.425583
0.40739
0.389197
0.371004
0.35281
0.334617
0.316424
0.298231
0.280037
0.261844
0.243651
0.225457
0.207264
0.189071
0.170878
0.152684
0.134491
0.116298
0.0981044
0.0799111
0.0617178
0.0435245
0.0253312
0.00713788
-0.0110554
-0.0292488
-0.0474421
-0.0656354
-0.0838288
-0.102022
-0.120215
-0.138409
-0.156602
-0.174796
-0.192989
-0.211182
-0.229375
-0.247568
-0.265757
-0.283941
-0.302082
-0.320209
0.320209
1.64117
1.64117
1.60867
1.5644
1.51895
1.47565
1.43571
1.39944
1.36678
1.3375
1.31127
1.28764
1.26605
1.24592
1.22672
1.20807
1.18971
1.17147
1.15328
1.1351
1.11691
1.09873
1.08054
1.06235
1.04415
1.02596
1.00777
0.989574
0.971381
0.953188
0.934994
0.916801
0.898608
0.880415
0.862221
0.844028
0.825835
0.807642
0.789448
0.771255
0.753062
0.734869
0.716675
0.698482
0.680289
0.662096
0.643902
0.625709
0.607516
0.589323
0.571129
0.552936
0.534743
0.51655
0.498356
0.480163
0.46197
0.443777
0.425583
0.40739
0.389197
0.371004
0.35281
0.334617
0.316424
0.298231
0.280037
0.261844
0.243651
0.225457
0.207264
0.189071
0.170878
0.152684
0.134491
0.116298
0.0981044
0.0799111
0.0617178
0.0435245
0.0253312
0.00713788
-0.0110554
-0.0292488
-0.0474421
-0.0656354
-0.0838288
-0.102022
-0.120215
-0.138409
-0.156602
-0.174796
-0.192989
-0.211182
-0.229375
-0.247567
-0.265755
-0.283929
-0.302031
-0.320195
0.320195
1.63879
1.63879
1.60817
1.56455
1.51927
1.476
1.43604
1.39973
1.36702
1.3377
1.31143
1.28776
1.26613
1.24597
1.22675
1.20809
1.18971
1.17147
1.15328
1.1351
1.11691
1.09873
1.08054
1.06235
1.04415
1.02596
1.00777
0.989574
0.971381
0.953188
0.934994
0.916801
0.898608
0.880415
0.862221
0.844028
0.825835
0.807642
0.789448
0.771255
0.753062
0.734869
0.716675
0.698482
0.680289
0.662096
0.643902
0.625709
0.607516
0.589323
0.571129
0.552936
0.534743
0.51655
0.498356
0.480163
0.46197
0.443777
0.425583
0.40739
0.389197
0.371004
0.35281
0.334617
0.316424
0.298231
0.280037
0.261844
0.243651
0.225457
0.207264
0.189071
0.170878
0.152684
0.134491
0.116298
0.0981044
0.0799111
0.0617178
0.0435245
0.0253312
0.00713788
-0.0110554
-0.0292488
-0.0474421
-0.0656354
-0.0838288
-0.102022
-0.120215
-0.138409
-0.156602
-0.174796
-0.192989
-0.211182
-0.229375
-0.247567
-0.265754
-0.283925
-0.302011
-0.320189
0.320189
1.64117
1.64117
1.60867
1.5644
1.51895
1.47565
1.43571
1.39944
1.36678
1.3375
1.31127
1.28764
1.26605
1.24592
1.22672
1.20807
1.18971
1.17147
1.15328
1.1351
1.11691
1.09873
1.08054
1.06235
1.04415
1.02596
1.00777
0.989574
0.971381
0.953188
0.934994
0.916801
0.898608
0.880415
0.862221
0.844028
0.825835
0.807642
0.789448
0.771255
0.753062
0.734869
0.716675
0.698482
0.680289
0.662096
0.643902
0.625709
0.607516
0.589323
0.571129
0.552936
0.534743
0.51655
0.498356
0.480163
0.46197
0.443777
0.425583
0.40739
0.389197
0.371004
0.35281
0.334617
0.316424
0.298231
0.280037
0.261844
0.243651
0.225457
0.207264
0.189071
0.170878
0.152684
0.134491
0.116298
0.0981044
0.0799111
0.0617178
0.0435245
0.0253312
0.00713788
-0.0110554
-0.0292488
-0.0474421
-0.0656354
-0.0838288
-0.102022
-0.120215
-0.138409
-0.156602
-0.174796
-0.192989
-0.211182
-0.229375
-0.247567
-0.265755
-0.283929
-0.302031
-0.320195
0.320195
1.64866
1.64866
1.61015
1.56403
1.5181
1.47473
1.43485
1.39869
1.36614
1.33697
1.31086
1.28734
1.26585
1.24579
1.22665
1.20803
1.18969
1.17146
1.15328
1.1351
1.11691
1.09873
1.08054
1.06235
1.04415
1.02596
1.00777
0.989574
0.971381
0.953188
0.934994
0.916801
0.898608
0.880415
0.862221
0.844028
0.825835
0.807642
0.789448
0.771255
0.753062
0.734869
0.716675
0.698482
0.680289
0.662096
0.643902
0.625709
0.607516
0.589323
0.571129
0.552936
0.534743
0.51655
0.498356
0.480163
0.46197
0.443777
0.425583
0.40739
0.389197
0.371004
0.35281
0.334617
0.316424
0.298231
0.280037
0.261844
0.243651
0.225457
0.207264
0.189071
0.170878
0.152684
0.134491
0.116298
0.0981044
0.0799111
0.0617178
0.0435245
0.0253312
0.00713788
-0.0110554
-0.0292488
-0.0474421
-0.0656354
-0.0838288
-0.102022
-0.120215
-0.138409
-0.156602
-0.174796
-0.192989
-0.211182
-0.229375
-0.247568
-0.265757
-0.283941
-0.302082
-0.320209
0.320209
1.66226
1.66226
1.61222
1.56349
1.51698
1.47355
1.43378
1.39778
1.3654
1.33639
1.31044
1.28705
1.26567
1.24569
1.22659
1.20801
1.18968
1.17146
1.15328
1.1351
1.11692
1.09873
1.08054
1.06235
1.04415
1.02596
1.00777
0.989574
0.971381
0.953188
0.934994
0.916801
0.898608
0.880415
0.862221
0.844028
0.825835
0.807642
0.789448
0.771255
0.753062
0.734869
0.716675
0.698482
0.680289
0.662096
0.643902
0.625709
0.607516
0.589323
0.571129
0.552936
0.534743
0.51655
0.498356
0.480163
0.46197
0.443777
0.425583
0.40739
0.389197
0.371004
0.35281
0.334617
0.316424
0.298231
0.280037
0.261844
0.243651
0.225457
0.207264
0.189071
0.170878
0.152684
0.134491
0.116298
0.0981044
0.0799111
0.0617178
0.0435245
0.0253312
0.00713787
-0.0110554
-0.0292488
-0.0474421
-0.0656354
-0.0838288
-0.102022
-0.120215
-0.138409
-0.156602
-0.174796
-0.192989
-0.211182
-0.229375
-0.247569
-0.265759
-0.283952
-0.302127
-0.320221
0.320221
1.68252
1.68252
1.61379
1.56309
1.51626
1.47281
1.43313
1.39724
1.36499
1.33611
1.31025
1.28695
1.26562
1.24566
1.22659
1.20801
1.18968
1.17146
1.15328
1.1351
1.11692
1.09873
1.08054
1.06235
1.04415
1.02596
1.00777
0.989574
0.971381
0.953188
0.934994
0.916801
0.898608
0.880415
0.862221
0.844028
0.825835
0.807642
0.789448
0.771255
0.753062
0.734869
0.716675
0.698482
0.680289
0.662096
0.643902
0.625709
0.607516
0.589323
0.571129
0.552936
0.534743
0.51655
0.498356
0.480163
0.46197
0.443777
0.425583
0.40739
0.389197
0.371004
0.35281
0.334617
0.316424
0.298231
0.280037
0.261844
0.243651
0.225457
0.207264
0.189071
0.170878
0.152684
0.134491
0.116298
0.0981044
0.0799111
0.0617178
0.0435245
0.0253312
0.00713787
-0.0110554
-0.0292488
-0.0474421
-0.0656354
-0.0838288
-0.102022
-0.120215
-0.138409
-0.156602
-0.174796
-0.192989
-0.211182
-0.229375
-0.247569
-0.265761
-0.283956
-0.302135
-0.320222
0.320222
1.68252
1.68252
1.61379
1.56309
1.51626
1.47281
1.43313
1.39724
1.36499
1.33611
1.31025
1.28695
1.26562
1.24566
1.22659
1.20801
1.18968
1.17146
1.15328
1.1351
1.11692
1.09873
1.08054
1.06235
1.04415
1.02596
1.00777
0.989574
0.971381
0.953188
0.934994
0.916801
0.898608
0.880415
0.862221
0.844028
0.825835
0.807642
0.789448
0.771255
0.753062
0.734869
0.716675
0.698482
0.680289
0.662096
0.643902
0.625709
0.607516
0.589323
0.571129
0.552936
0.534743
0.51655
0.498356
0.480163
0.46197
0.443777
0.425583
0.40739
0.389197
0.371004
0.35281
0.334617
0.316424
0.298231
0.280037
0.261844
0.243651
0.225457
0.207264
0.189071
0.170878
0.152684
0.134491
0.116298
0.0981044
0.0799111
0.0617178
0.0435245
0.0253312
0.00713787
-0.0110554
-0.0292488
-0.0474421
-0.0656354
-0.0838288
-0.102022
-0.120215
-0.138409
-0.156602
-0.174796
-0.192989
-0.211182
-0.229375
-0.247569
-0.265761
-0.283956
-0.302135
-0.320222
0.320222
