# vtk DataFile Version 2.0
FlowField
ASCII
DATASET STRUCTURED_GRID
DIMENSIONS 102 1 12 
POINTS 1224 double
0 0 0
0.4 0 0
0.8 0 0
1.2 0 0
1.6 0 0
2 0 0
2.4 0 0
2.8 0 0
3.2 0 0
3.6 0 0
4 0 0
4.4 0 0
4.8 0 0
5.2 0 0
5.6 0 0
6 0 0
6.4 0 0
6.8 0 0
7.2 0 0
7.6 0 0
8 0 0
8.4 0 0
8.8 0 0
9.2 0 0
9.6 0 0
10 0 0
10.4 0 0
10.8 0 0
11.2 0 0
11.6 0 0
12 0 0
12.4 0 0
12.8 0 0
13.2 0 0
13.6 0 0
14 0 0
14.4 0 0
14.8 0 0
15.2 0 0
15.6 0 0
16 0 0
16.4 0 0
16.8 0 0
17.2 0 0
17.6 0 0
18 0 0
18.4 0 0
18.8 0 0
19.2 0 0
19.6 0 0
20 0 0
20.4 0 0
20.8 0 0
21.2 0 0
21.6 0 0
22 0 0
22.4 0 0
22.8 0 0
23.2 0 0
23.6 0 0
24 0 0
24.4 0 0
24.8 0 0
25.2 0 0
25.6 0 0
26 0 0
26.4 0 0
26.8 0 0
27.2 0 0
27.6 0 0
28 0 0
28.4 0 0
28.8 0 0
29.2 0 0
29.6 0 0
30 0 0
30.4 0 0
30.8 0 0
31.2 0 0
31.6 0 0
32 0 0
32.4 0 0
32.8 0 0
33.2 0 0
33.6 0 0
34 0 0
34.4 0 0
34.8 0 0
35.2 0 0
35.6 0 0
36 0 0
36.4 0 0
36.8 0 0
37.2 0 0
37.6 0 0
38 0 0
38.4 0 0
38.8 0 0
39.2 0 0
39.6 0 0
40 0 0
40.4 0 0
0 0.1 0
0.4 0.1 0
0.8 0.1 0
1.2 0.1 0
1.6 0.1 0
2 0.1 0
2.4 0.1 0
2.8 0.1 0
3.2 0.1 0
3.6 0.1 0
4 0.1 0
4.4 0.1 0
4.8 0.1 0
5.2 0.1 0
5.6 0.1 0
6 0.1 0
6.4 0.1 0
6.8 0.1 0
7.2 0.1 0
7.6 0.1 0
8 0.1 0
8.4 0.1 0
8.8 0.1 0
9.2 0.1 0
9.6 0.1 0
10 0.1 0
10.4 0.1 0
10.8 0.1 0
11.2 0.1 0
11.6 0.1 0
12 0.1 0
12.4 0.1 0
12.8 0.1 0
13.2 0.1 0
13.6 0.1 0
14 0.1 0
14.4 0.1 0
14.8 0.1 0
15.2 0.1 0
15.6 0.1 0
16 0.1 0
16.4 0.1 0
16.8 0.1 0
17.2 0.1 0
17.6 0.1 0
18 0.1 0
18.4 0.1 0
18.8 0.1 0
19.2 0.1 0
19.6 0.1 0
20 0.1 0
20.4 0.1 0
20.8 0.1 0
21.2 0.1 0
21.6 0.1 0
22 0.1 0
22.4 0.1 0
22.8 0.1 0
23.2 0.1 0
23.6 0.1 0
24 0.1 0
24.4 0.1 0
24.8 0.1 0
25.2 0.1 0
25.6 0.1 0
26 0.1 0
26.4 0.1 0
26.8 0.1 0
27.2 0.1 0
27.6 0.1 0
28 0.1 0
28.4 0.1 0
28.8 0.1 0
29.2 0.1 0
29.6 0.1 0
30 0.1 0
30.4 0.1 0
30.8 0.1 0
31.2 0.1 0
31.6 0.1 0
32 0.1 0
32.4 0.1 0
32.8 0.1 0
33.2 0.1 0
33.6 0.1 0
34 0.1 0
34.4 0.1 0
34.8 0.1 0
35.2 0.1 0
35.6 0.1 0
36 0.1 0
36.4 0.1 0
36.8 0.1 0
37.2 0.1 0
37.6 0.1 0
38 0.1 0
38.4 0.1 0
38.8 0.1 0
39.2 0.1 0
39.6 0.1 0
40 0.1 0
40.4 0.1 0
0 0.2 0
0.4 0.2 0
0.8 0.2 0
1.2 0.2 0
1.6 0.2 0
2 0.2 0
2.4 0.2 0
2.8 0.2 0
3.2 0.2 0
3.6 0.2 0
4 0.2 0
4.4 0.2 0
4.8 0.2 0
5.2 0.2 0
5.6 0.2 0
6 0.2 0
6.4 0.2 0
6.8 0.2 0
7.2 0.2 0
7.6 0.2 0
8 0.2 0
8.4 0.2 0
8.8 0.2 0
9.2 0.2 0
9.6 0.2 0
10 0.2 0
10.4 0.2 0
10.8 0.2 0
11.2 0.2 0
11.6 0.2 0
12 0.2 0
12.4 0.2 0
12.8 0.2 0
13.2 0.2 0
13.6 0.2 0
14 0.2 0
14.4 0.2 0
14.8 0.2 0
15.2 0.2 0
15.6 0.2 0
16 0.2 0
16.4 0.2 0
16.8 0.2 0
17.2 0.2 0
17.6 0.2 0
18 0.2 0
18.4 0.2 0
18.8 0.2 0
19.2 0.2 0
19.6 0.2 0
20 0.2 0
20.4 0.2 0
20.8 0.2 0
21.2 0.2 0
21.6 0.2 0
22 0.2 0
22.4 0.2 0
22.8 0.2 0
23.2 0.2 0
23.6 0.2 0
24 0.2 0
24.4 0.2 0
24.8 0.2 0
25.2 0.2 0
25.6 0.2 0
26 0.2 0
26.4 0.2 0
26.8 0.2 0
27.2 0.2 0
27.6 0.2 0
28 0.2 0
28.4 0.2 0
28.8 0.2 0
29.2 0.2 0
29.6 0.2 0
30 0.2 0
30.4 0.2 0
30.8 0.2 0
31.2 0.2 0
31.6 0.2 0
32 0.2 0
32.4 0.2 0
32.8 0.2 0
33.2 0.2 0
33.6 0.2 0
34 0.2 0
34.4 0.2 0
34.8 0.2 0
35.2 0.2 0
35.6 0.2 0
36 0.2 0
36.4 0.2 0
36.8 0.2 0
37.2 0.2 0
37.6 0.2 0
38 0.2 0
38.4 0.2 0
38.8 0.2 0
39.2 0.2 0
39.6 0.2 0
40 0.2 0
40.4 0.2 0
0 0.3 0
0.4 0.3 0
0.8 0.3 0
1.2 0.3 0
1.6 0.3 0
2 0.3 0
2.4 0.3 0
2.8 0.3 0
3.2 0.3 0
3.6 0.3 0
4 0.3 0
4.4 0.3 0
4.8 0.3 0
5.2 0.3 0
5.6 0.3 0
6 0.3 0
6.4 0.3 0
6.8 0.3 0
7.2 0.3 0
7.6 0.3 0
8 0.3 0
8.4 0.3 0
8.8 0.3 0
9.2 0.3 0
9.6 0.3 0
10 0.3 0
10.4 0.3 0
10.8 0.3 0
11.2 0.3 0
11.6 0.3 0
12 0.3 0
12.4 0.3 0
12.8 0.3 0
13.2 0.3 0
13.6 0.3 0
14 0.3 0
14.4 0.3 0
14.8 0.3 0
15.2 0.3 0
15.6 0.3 0
16 0.3 0
16.4 0.3 0
16.8 0.3 0
17.2 0.3 0
17.6 0.3 0
18 0.3 0
18.4 0.3 0
18.8 0.3 0
19.2 0.3 0
19.6 0.3 0
20 0.3 0
20.4 0.3 0
20.8 0.3 0
21.2 0.3 0
21.6 0.3 0
22 0.3 0
22.4 0.3 0
22.8 0.3 0
23.2 0.3 0
23.6 0.3 0
24 0.3 0
24.4 0.3 0
24.8 0.3 0
25.2 0.3 0
25.6 0.3 0
26 0.3 0
26.4 0.3 0
26.8 0.3 0
27.2 0.3 0
27.6 0.3 0
28 0.3 0
28.4 0.3 0
28.8 0.3 0
29.2 0.3 0
29.6 0.3 0
30 0.3 0
30.4 0.3 0
30.8 0.3 0
31.2 0.3 0
31.6 0.3 0
32 0.3 0
32.4 0.3 0
32.8 0.3 0
33.2 0.3 0
33.6 0.3 0
34 0.3 0
34.4 0.3 0
34.8 0.3 0
35.2 0.3 0
35.6 0.3 0
36 0.3 0
36.4 0.3 0
36.8 0.3 0
37.2 0.3 0
37.6 0.3 0
38 0.3 0
38.4 0.3 0
38.8 0.3 0
39.2 0.3 0
39.6 0.3 0
40 0.3 0
40.4 0.3 0
0 0.4 0
0.4 0.4 0
0.8 0.4 0
1.2 0.4 0
1.6 0.4 0
2 0.4 0
2.4 0.4 0
2.8 0.4 0
3.2 0.4 0
3.6 0.4 0
4 0.4 0
4.4 0.4 0
4.8 0.4 0
5.2 0.4 0
5.6 0.4 0
6 0.4 0
6.4 0.4 0
6.8 0.4 0
7.2 0.4 0
7.6 0.4 0
8 0.4 0
8.4 0.4 0
8.8 0.4 0
9.2 0.4 0
9.6 0.4 0
10 0.4 0
10.4 0.4 0
10.8 0.4 0
11.2 0.4 0
11.6 0.4 0
12 0.4 0
12.4 0.4 0
12.8 0.4 0
13.2 0.4 0
13.6 0.4 0
14 0.4 0
14.4 0.4 0
14.8 0.4 0
15.2 0.4 0
15.6 0.4 0
16 0.4 0
16.4 0.4 0
16.8 0.4 0
17.2 0.4 0
17.6 0.4 0
18 0.4 0
18.4 0.4 0
18.8 0.4 0
19.2 0.4 0
19.6 0.4 0
20 0.4 0
20.4 0.4 0
20.8 0.4 0
21.2 0.4 0
21.6 0.4 0
22 0.4 0
22.4 0.4 0
22.8 0.4 0
23.2 0.4 0
23.6 0.4 0
24 0.4 0
24.4 0.4 0
24.8 0.4 0
25.2 0.4 0
25.6 0.4 0
26 0.4 0
26.4 0.4 0
26.8 0.4 0
27.2 0.4 0
27.6 0.4 0
28 0.4 0
28.4 0.4 0
28.8 0.4 0
29.2 0.4 0
29.6 0.4 0
30 0.4 0
30.4 0.4 0
30.8 0.4 0
31.2 0.4 0
31.6 0.4 0
32 0.4 0
32.4 0.4 0
32.8 0.4 0
33.2 0.4 0
33.6 0.4 0
34 0.4 0
34.4 0.4 0
34.8 0.4 0
35.2 0.4 0
35.6 0.4 0
36 0.4 0
36.4 0.4 0
36.8 0.4 0
37.2 0.4 0
37.6 0.4 0
38 0.4 0
38.4 0.4 0
38.8 0.4 0
39.2 0.4 0
39.6 0.4 0
40 0.4 0
40.4 0.4 0
0 0.5 0
0.4 0.5 0
0.8 0.5 0
1.2 0.5 0
1.6 0.5 0
2 0.5 0
2.4 0.5 0
2.8 0.5 0
3.2 0.5 0
3.6 0.5 0
4 0.5 0
4.4 0.5 0
4.8 0.5 0
5.2 0.5 0
5.6 0.5 0
6 0.5 0
6.4 0.5 0
6.8 0.5 0
7.2 0.5 0
7.6 0.5 0
8 0.5 0
8.4 0.5 0
8.8 0.5 0
9.2 0.5 0
9.6 0.5 0
10 0.5 0
10.4 0.5 0
10.8 0.5 0
11.2 0.5 0
11.6 0.5 0
12 0.5 0
12.4 0.5 0
12.8 0.5 0
13.2 0.5 0
13.6 0.5 0
14 0.5 0
14.4 0.5 0
14.8 0.5 0
15.2 0.5 0
15.6 0.5 0
16 0.5 0
16.4 0.5 0
16.8 0.5 0
17.2 0.5 0
17.6 0.5 0
18 0.5 0
18.4 0.5 0
18.8 0.5 0
19.2 0.5 0
19.6 0.5 0
20 0.5 0
20.4 0.5 0
20.8 0.5 0
21.2 0.5 0
21.6 0.5 0
22 0.5 0
22.4 0.5 0
22.8 0.5 0
23.2 0.5 0
23.6 0.5 0
24 0.5 0
24.4 0.5 0
24.8 0.5 0
25.2 0.5 0
25.6 0.5 0
26 0.5 0
26.4 0.5 0
26.8 0.5 0
27.2 0.5 0
27.6 0.5 0
28 0.5 0
28.4 0.5 0
28.8 0.5 0
29.2 0.5 0
29.6 0.5 0
30 0.5 0
30.4 0.5 0
30.8 0.5 0
31.2 0.5 0
31.6 0.5 0
32 0.5 0
32.4 0.5 0
32.8 0.5 0
33.2 0.5 0
33.6 0.5 0
34 0.5 0
34.4 0.5 0
34.8 0.5 0
35.2 0.5 0
35.6 0.5 0
36 0.5 0
36.4 0.5 0
36.8 0.5 0
37.2 0.5 0
37.6 0.5 0
38 0.5 0
38.4 0.5 0
38.8 0.5 0
39.2 0.5 0
39.6 0.5 0
40 0.5 0
40.4 0.5 0
0 0.6 0
0.4 0.6 0
0.8 0.6 0
1.2 0.6 0
1.6 0.6 0
2 0.6 0
2.4 0.6 0
2.8 0.6 0
3.2 0.6 0
3.6 0.6 0
4 0.6 0
4.4 0.6 0
4.8 0.6 0
5.2 0.6 0
5.6 0.6 0
6 0.6 0
6.4 0.6 0
6.8 0.6 0
7.2 0.6 0
7.6 0.6 0
8 0.6 0
8.4 0.6 0
8.8 0.6 0
9.2 0.6 0
9.6 0.6 0
10 0.6 0
10.4 0.6 0
10.8 0.6 0
11.2 0.6 0
11.6 0.6 0
12 0.6 0
12.4 0.6 0
12.8 0.6 0
13.2 0.6 0
13.6 0.6 0
14 0.6 0
14.4 0.6 0
14.8 0.6 0
15.2 0.6 0
15.6 0.6 0
16 0.6 0
16.4 0.6 0
16.8 0.6 0
17.2 0.6 0
17.6 0.6 0
18 0.6 0
18.4 0.6 0
18.8 0.6 0
19.2 0.6 0
19.6 0.6 0
20 0.6 0
20.4 0.6 0
20.8 0.6 0
21.2 0.6 0
21.6 0.6 0
22 0.6 0
22.4 0.6 0
22.8 0.6 0
23.2 0.6 0
23.6 0.6 0
24 0.6 0
24.4 0.6 0
24.8 0.6 0
25.2 0.6 0
25.6 0.6 0
26 0.6 0
26.4 0.6 0
26.8 0.6 0
27.2 0.6 0
27.6 0.6 0
28 0.6 0
28.4 0.6 0
28.8 0.6 0
29.2 0.6 0
29.6 0.6 0
30 0.6 0
30.4 0.6 0
30.8 0.6 0
31.2 0.6 0
31.6 0.6 0
32 0.6 0
32.4 0.6 0
32.8 0.6 0
33.2 0.6 0
33.6 0.6 0
34 0.6 0
34.4 0.6 0
34.8 0.6 0
35.2 0.6 0
35.6 0.6 0
36 0.6 0
36.4 0.6 0
36.8 0.6 0
37.2 0.6 0
37.6 0.6 0
38 0.6 0
38.4 0.6 0
38.8 0.6 0
39.2 0.6 0
39.6 0.6 0
40 0.6 0
40.4 0.6 0
0 0.7 0
0.4 0.7 0
0.8 0.7 0
1.2 0.7 0
1.6 0.7 0
2 0.7 0
2.4 0.7 0
2.8 0.7 0
3.2 0.7 0
3.6 0.7 0
4 0.7 0
4.4 0.7 0
4.8 0.7 0
5.2 0.7 0
5.6 0.7 0
6 0.7 0
6.4 0.7 0
6.8 0.7 0
7.2 0.7 0
7.6 0.7 0
8 0.7 0
8.4 0.7 0
8.8 0.7 0
9.2 0.7 0
9.6 0.7 0
10 0.7 0
10.4 0.7 0
10.8 0.7 0
11.2 0.7 0
11.6 0.7 0
12 0.7 0
12.4 0.7 0
12.8 0.7 0
13.2 0.7 0
13.6 0.7 0
14 0.7 0
14.4 0.7 0
14.8 0.7 0
15.2 0.7 0
15.6 0.7 0
16 0.7 0
16.4 0.7 0
16.8 0.7 0
17.2 0.7 0
17.6 0.7 0
18 0.7 0
18.4 0.7 0
18.8 0.7 0
19.2 0.7 0
19.6 0.7 0
20 0.7 0
20.4 0.7 0
20.8 0.7 0
21.2 0.7 0
21.6 0.7 0
22 0.7 0
22.4 0.7 0
22.8 0.7 0
23.2 0.7 0
23.6 0.7 0
24 0.7 0
24.4 0.7 0
24.8 0.7 0
25.2 0.7 0
25.6 0.7 0
26 0.7 0
26.4 0.7 0
26.8 0.7 0
27.2 0.7 0
27.6 0.7 0
28 0.7 0
28.4 0.7 0
28.8 0.7 0
29.2 0.7 0
29.6 0.7 0
30 0.7 0
30.4 0.7 0
30.8 0.7 0
31.2 0.7 0
31.6 0.7 0
32 0.7 0
32.4 0.7 0
32.8 0.7 0
33.2 0.7 0
33.6 0.7 0
34 0.7 0
34.4 0.7 0
34.8 0.7 0
35.2 0.7 0
35.6 0.7 0
36 0.7 0
36.4 0.7 0
36.8 0.7 0
37.2 0.7 0
37.6 0.7 0
38 0.7 0
38.4 0.7 0
38.8 0.7 0
39.2 0.7 0
39.6 0.7 0
40 0.7 0
40.4 0.7 0
0 0.8 0
0.4 0.8 0
0.8 0.8 0
1.2 0.8 0
1.6 0.8 0
2 0.8 0
2.4 0.8 0
2.8 0.8 0
3.2 0.8 0
3.6 0.8 0
4 0.8 0
4.4 0.8 0
4.8 0.8 0
5.2 0.8 0
5.6 0.8 0
6 0.8 0
6.4 0.8 0
6.8 0.8 0
7.2 0.8 0
7.6 0.8 0
8 0.8 0
8.4 0.8 0
8.8 0.8 0
9.2 0.8 0
9.6 0.8 0
10 0.8 0
10.4 0.8 0
10.8 0.8 0
11.2 0.8 0
11.6 0.8 0
12 0.8 0
12.4 0.8 0
12.8 0.8 0
13.2 0.8 0
13.6 0.8 0
14 0.8 0
14.4 0.8 0
14.8 0.8 0
15.2 0.8 0
15.6 0.8 0
16 0.8 0
16.4 0.8 0
16.8 0.8 0
17.2 0.8 0
17.6 0.8 0
18 0.8 0
18.4 0.8 0
18.8 0.8 0
19.2 0.8 0
19.6 0.8 0
20 0.8 0
20.4 0.8 0
20.8 0.8 0
21.2 0.8 0
21.6 0.8 0
22 0.8 0
22.4 0.8 0
22.8 0.8 0
23.2 0.8 0
23.6 0.8 0
24 0.8 0
24.4 0.8 0
24.8 0.8 0
25.2 0.8 0
25.6 0.8 0
26 0.8 0
26.4 0.8 0
26.8 0.8 0
27.2 0.8 0
27.6 0.8 0
28 0.8 0
28.4 0.8 0
28.8 0.8 0
29.2 0.8 0
29.6 0.8 0
30 0.8 0
30.4 0.8 0
30.8 0.8 0
31.2 0.8 0
31.6 0.8 0
32 0.8 0
32.4 0.8 0
32.8 0.8 0
33.2 0.8 0
33.6 0.8 0
34 0.8 0
34.4 0.8 0
34.8 0.8 0
35.2 0.8 0
35.6 0.8 0
36 0.8 0
36.4 0.8 0
36.8 0.8 0
37.2 0.8 0
37.6 0.8 0
38 0.8 0
38.4 0.8 0
38.8 0.8 0
39.2 0.8 0
39.6 0.8 0
40 0.8 0
40.4 0.8 0
0 0.9 0
0.4 0.9 0
0.8 0.9 0
1.2 0.9 0
1.6 0.9 0
2 0.9 0
2.4 0.9 0
2.8 0.9 0
3.2 0.9 0
3.6 0.9 0
4 0.9 0
4.4 0.9 0
4.8 0.9 0
5.2 0.9 0
5.6 0.9 0
6 0.9 0
6.4 0.9 0
6.8 0.9 0
7.2 0.9 0
7.6 0.9 0
8 0.9 0
8.4 0.9 0
8.8 0.9 0
9.2 0.9 0
9.6 0.9 0
10 0.9 0
10.4 0.9 0
10.8 0.9 0
11.2 0.9 0
11.6 0.9 0
12 0.9 0
12.4 0.9 0
12.8 0.9 0
13.2 0.9 0
13.6 0.9 0
14 0.9 0
14.4 0.9 0
14.8 0.9 0
15.2 0.9 0
15.6 0.9 0
16 0.9 0
16.4 0.9 0
16.8 0.9 0
17.2 0.9 0
17.6 0.9 0
18 0.9 0
18.4 0.9 0
18.8 0.9 0
19.2 0.9 0
19.6 0.9 0
20 0.9 0
20.4 0.9 0
20.8 0.9 0
21.2 0.9 0
21.6 0.9 0
22 0.9 0
22.4 0.9 0
22.8 0.9 0
23.2 0.9 0
23.6 0.9 0
24 0.9 0
24.4 0.9 0
24.8 0.9 0
25.2 0.9 0
25.6 0.9 0
26 0.9 0
26.4 0.9 0
26.8 0.9 0
27.2 0.9 0
27.6 0.9 0
28 0.9 0
28.4 0.9 0
28.8 0.9 0
29.2 0.9 0
29.6 0.9 0
30 0.9 0
30.4 0.9 0
30.8 0.9 0
31.2 0.9 0
31.6 0.9 0
32 0.9 0
32.4 0.9 0
32.8 0.9 0
33.2 0.9 0
33.6 0.9 0
34 0.9 0
34.4 0.9 0
34.8 0.9 0
35.2 0.9 0
35.6 0.9 0
36 0.9 0
36.4 0.9 0
36.8 0.9 0
37.2 0.9 0
37.6 0.9 0
38 0.9 0
38.4 0.9 0
38.8 0.9 0
39.2 0.9 0
39.6 0.9 0
40 0.9 0
40.4 0.9 0
0 1 0
0.4 1 0
0.8 1 0
1.2 1 0
1.6 1 0
2 1 0
2.4 1 0
2.8 1 0
3.2 1 0
3.6 1 0
4 1 0
4.4 1 0
4.8 1 0
5.2 1 0
5.6 1 0
6 1 0
6.4 1 0
6.8 1 0
7.2 1 0
7.6 1 0
8 1 0
8.4 1 0
8.8 1 0
9.2 1 0
9.6 1 0
10 1 0
10.4 1 0
10.8 1 0
11.2 1 0
11.6 1 0
12 1 0
12.4 1 0
12.8 1 0
13.2 1 0
13.6 1 0
14 1 0
14.4 1 0
14.8 1 0
15.2 1 0
15.6 1 0
16 1 0
16.4 1 0
16.8 1 0
17.2 1 0
17.6 1 0
18 1 0
18.4 1 0
18.8 1 0
19.2 1 0
19.6 1 0
20 1 0
20.4 1 0
20.8 1 0
21.2 1 0
21.6 1 0
22 1 0
22.4 1 0
22.8 1 0
23.2 1 0
23.6 1 0
24 1 0
24.4 1 0
24.8 1 0
25.2 1 0
25.6 1 0
26 1 0
26.4 1 0
26.8 1 0
27.2 1 0
27.6 1 0
28 1 0
28.4 1 0
28.8 1 0
29.2 1 0
29.6 1 0
30 1 0
30.4 1 0
30.8 1 0
31.2 1 0
31.6 1 0
32 1 0
32.4 1 0
32.8 1 0
33.2 1 0
33.6 1 0
34 1 0
34.4 1 0
34.8 1 0
35.2 1 0
35.6 1 0
36 1 0
36.4 1 0
36.8 1 0
37.2 1 0
37.6 1 0
38 1 0
38.4 1 0
38.8 1 0
39.2 1 0
39.6 1 0
40 1 0
40.4 1 0
0 1.1 0
0.4 1.1 0
0.8 1.1 0
1.2 1.1 0
1.6 1.1 0
2 1.1 0
2.4 1.1 0
2.8 1.1 0
3.2 1.1 0
3.6 1.1 0
4 1.1 0
4.4 1.1 0
4.8 1.1 0
5.2 1.1 0
5.6 1.1 0
6 1.1 0
6.4 1.1 0
6.8 1.1 0
7.2 1.1 0
7.6 1.1 0
8 1.1 0
8.4 1.1 0
8.8 1.1 0
9.2 1.1 0
9.6 1.1 0
10 1.1 0
10.4 1.1 0
10.8 1.1 0
11.2 1.1 0
11.6 1.1 0
12 1.1 0
12.4 1.1 0
12.8 1.1 0
13.2 1.1 0
13.6 1.1 0
14 1.1 0
14.4 1.1 0
14.8 1.1 0
15.2 1.1 0
15.6 1.1 0
16 1.1 0
16.4 1.1 0
16.8 1.1 0
17.2 1.1 0
17.6 1.1 0
18 1.1 0
18.4 1.1 0
18.8 1.1 0
19.2 1.1 0
19.6 1.1 0
20 1.1 0
20.4 1.1 0
20.8 1.1 0
21.2 1.1 0
21.6 1.1 0
22 1.1 0
22.4 1.1 0
22.8 1.1 0
23.2 1.1 0
23.6 1.1 0
24 1.1 0
24.4 1.1 0
24.8 1.1 0
25.2 1.1 0
25.6 1.1 0
26 1.1 0
26.4 1.1 0
26.8 1.1 0
27.2 1.1 0
27.6 1.1 0
28 1.1 0
28.4 1.1 0
28.8 1.1 0
29.2 1.1 0
29.6 1.1 0
30 1.1 0
30.4 1.1 0
30.8 1.1 0
31.2 1.1 0
31.6 1.1 0
32 1.1 0
32.4 1.1 0
32.8 1.1 0
33.2 1.1 0
33.6 1.1 0
34 1.1 0
34.4 1.1 0
34.8 1.1 0
35.2 1.1 0
35.6 1.1 0
36 1.1 0
36.4 1.1 0
36.8 1.1 0
37.2 1.1 0
37.6 1.1 0
38 1.1 0
38.4 1.1 0
38.8 1.1 0
39.2 1.1 0
39.6 1.1 0
40 1.1 0
40.4 1.1 0

POINT_DATA 1224

SCALARS phi double
LOOKUP_TABLE default
0.911619
1.08838
1.18693
1.21817
1.20207
1.16371
1.12152
1.08384
1.05232
1.02601
1.00345
0.983493
0.965362
0.948567
0.932798
0.917857
0.903609
0.88996
0.876842
0.864205
0.852011
0.840231
0.828842
0.817823
0.807161
0.79684
0.786849
0.777177
0.767812
0.758745
0.749965
0.741459
0.733213
0.725211
0.717436
0.709868
0.702486
0.695262
0.688166
0.681169
0.674236
0.667332
0.660423
0.653475
0.646452
0.639323
0.632058
0.62463
0.617014
0.609191
0.601143
0.592856
0.584322
0.575533
0.566486
0.557181
0.54762
0.537807
0.527748
0.517451
0.506924
0.496178
0.485222
0.474068
0.462727
0.45121
0.43953
0.427699
0.41573
0.403634
0.391426
0.379119
0.366728
0.354267
0.341752
0.3292
0.316628
0.304054
0.291498
0.27898
0.266522
0.254144
0.241869
0.229721
0.217723
0.205898
0.194271
0.182864
0.171701
0.160805
0.150197
0.139898
0.12993
0.120299
0.11105
0.10209
0.0936678
0.0848807
0.0769587
0.0681629
0.042191
0.042191
0.911619
1.08838
1.18693
1.21817
1.20207
1.16371
1.12152
1.08384
1.05232
1.02601
1.00345
0.983493
0.965362
0.948567
0.932798
0.917857
0.903609
0.88996
0.876842
0.864205
0.852011
0.840231
0.828842
0.817823
0.807161
0.79684
0.786849
0.777177
0.767812
0.758745
0.749965
0.741459
0.733213
0.725211
0.717436
0.709868
0.702486
0.695262
0.688166
0.681169
0.674236
0.667332
0.660423
0.653475
0.646452
0.639323
0.632058
0.62463
0.617014
0.609191
0.601143
0.592856
0.584322
0.575533
0.566486
0.557181
0.54762
0.537807
0.527748
0.517451
0.506924
0.496178
0.485222
0.474068
0.462727
0.45121
0.43953
0.427699
0.41573
0.403634
0.391426
0.379119
0.366728
0.354267
0.341752
0.3292
0.316628
0.304054
0.291498
0.27898
0.266522
0.254144
0.241869
0.229721
0.217723
0.205898
0.194271
0.182864
0.171701
0.160805
0.150197
0.139898
0.12993
0.120299
0.11105
0.10209
0.0936678
0.0848807
0.0769587
0.0681629
0.042191
0.042191
1.00188
0.998125
1.02685
1.06105
1.08319
1.0888
1.08087
1.06447
1.04395
1.02217
1.00069
0.980209
0.960955
0.942918
0.925998
0.910073
0.895022
0.880742
0.867147
0.854167
0.841743
0.829829
0.818385
0.807379
0.796783
0.786573
0.776729
0.767232
0.758066
0.749216
0.740668
0.732408
0.724422
0.716693
0.709206
0.701945
0.694891
0.688023
0.681318
0.67475
0.668291
0.661913
0.655584
0.649275
0.642954
0.63659
0.630153
0.623616
0.616952
0.610137
0.60315
0.595973
0.588589
0.580987
0.573157
0.565091
0.556786
0.548238
0.539449
0.530418
0.521151
0.51165
0.501922
0.491972
0.481809
0.47144
0.460872
0.450115
0.439178
0.42807
0.416801
0.405382
0.393823
0.382137
0.370337
0.358435
0.346446
0.334386
0.322271
0.310119
0.297947
0.285776
0.273627
0.26152
0.249478
0.237525
0.225683
0.213976
0.202429
0.191066
0.179911
0.168985
0.158316
0.147912
0.137834
0.127972
0.118689
0.108981
0.101001
0.0898507
0.0796163
0.0796163
1.01572
0.984281
0.963649
0.958795
0.96217
0.966524
0.967709
0.964361
0.956779
0.945954
0.932986
0.918808
0.904114
0.889375
0.874888
0.860824
0.847273
0.834272
0.821826
0.809921
0.798536
0.787645
0.777219
0.767231
0.757655
0.748467
0.739645
0.731168
0.723018
0.715176
0.707628
0.700359
0.693353
0.686597
0.680077
0.673778
0.667686
0.661785
0.656058
0.650489
0.645055
0.639738
0.634514
0.629359
0.624249
0.619159
0.614063
0.608937
0.603756
0.598495
0.593133
0.587647
0.582019
0.57623
0.570264
0.564109
0.557751
0.551181
0.54439
0.537372
0.530122
0.522636
0.514912
0.506949
0.498746
0.490304
0.481625
0.472711
0.463564
0.454189
0.444589
0.43477
0.424736
0.414496
0.404056
0.393424
0.382612
0.371628
0.360487
0.3492
0.337783
0.326252
0.314624
0.302919
0.291157
0.279358
0.267546
0.255744
0.243978
0.232271
0.22065
0.20914
0.197772
0.186556
0.175569
0.164681
0.154396
0.143354
0.135764
0.120272
0.128245
0.128245
1.02404
0.975965
0.919364
0.876597
0.848753
0.831753
0.821182
0.813715
0.807274
0.800757
0.793701
0.786012
0.777776
0.769148
0.760296
0.751368
0.742486
0.733739
0.725192
0.716889
0.708857
0.70111
0.693652
0.686484
0.6796
0.672992
0.66665
0.660563
0.654721
0.649112
0.643726
0.638551
0.633578
0.628796
0.624195
0.619766
0.615497
0.611379
0.607401
0.603552
0.599818
0.596188
0.592646
0.589178
0.585767
0.582396
0.579048
0.575703
0.572342
0.568946
0.565496
0.561972
0.558355
0.554626
0.550768
0.546764
0.542598
0.538254
0.533719
0.528978
0.524021
0.518836
0.513413
0.507743
0.501817
0.49563
0.489173
0.482442
0.475433
0.468141
0.460564
0.4527
0.444549
0.436112
0.427389
0.418385
0.409104
0.399553
0.389738
0.379669
0.369357
0.358816
0.34806
0.337106
0.325971
0.314676
0.303243
0.291695
0.280056
0.268354
0.256614
0.244865
0.23314
0.221451
0.209892
0.198288
0.187378
0.175
0.168596
0.147012
0.174533
0.174533
1.11553
0.884471
0.754942
0.682423
0.641439
0.61841
0.605773
0.599099
0.595721
0.594024
0.593049
0.592248
0.591331
0.590167
0.588716
0.586989
0.585024
0.582868
0.580569
0.578172
0.575716
0.573234
0.570753
0.568293
0.565872
0.563501
0.561189
0.558943
0.556767
0.554663
0.552632
0.550675
0.548789
0.546975
0.545231
0.543554
0.54194
0.540386
0.538888
0.537442
0.536042
0.534683
0.533359
0.532062
0.530784
0.529515
0.528246
0.526965
0.52566
0.524317
0.522924
0.521465
0.519926
0.518289
0.51654
0.514662
0.512638
0.510451
0.508085
0.505523
0.502748
0.499745
0.496498
0.492992
0.489213
0.485146
0.480778
0.476099
0.471096
0.46576
0.460083
0.454056
0.447674
0.440933
0.43383
0.426364
0.418537
0.410352
0.401813
0.392929
0.383708
0.374162
0.364306
0.354154
0.343727
0.333043
0.322125
0.310998
0.299688
0.288222
0.27663
0.264941
0.253194
0.241397
0.229668
0.217767
0.206685
0.193467
0.188285
0.162136
0.203129
0.203129
-0.101677
0.101677
0.204149
0.258515
0.29004
0.310502
0.325452
0.337536
0.348013
0.357476
0.366192
0.374278
0.381784
0.388735
0.395152
0.401057
0.406477
0.411445
0.415995
0.420165
0.423989
0.427504
0.430742
0.433734
0.436507
0.439087
0.441495
0.443752
0.445874
0.447876
0.449772
0.451571
0.453285
0.45492
0.456483
0.457981
0.459418
0.460799
0.462127
0.463404
0.464631
0.46581
0.46694
0.46802
0.469049
0.470024
0.47094
0.471792
0.472574
0.473279
0.473897
0.474418
0.474831
0.475122
0.475279
0.475286
0.475127
0.474785
0.474242
0.473481
0.472482
0.471226
0.469695
0.467869
0.465731
0.463262
0.460446
0.457266
0.453708
0.449759
0.445407
0.440641
0.435456
0.429843
0.423801
0.417329
0.410427
0.403099
0.395353
0.387196
0.378641
0.369702
0.360395
0.350739
0.340757
0.330471
0.319907
0.309093
0.298059
0.286835
0.275455
0.26395
0.252361
0.240701
0.229088
0.217287
0.206289
0.193142
0.188018
0.161924
0.20293
0.20293
-0.00930645
0.00930645
0.0399923
0.0692732
0.0943627
0.115578
0.133846
0.150008
0.164679
0.178277
0.191068
0.203216
0.214819
0.225933
0.236591
0.246813
0.25661
0.265995
0.274979
0.283574
0.291793
0.299651
0.307164
0.314347
0.321218
0.327793
0.334086
0.340114
0.345892
0.351433
0.356749
0.361854
0.366758
0.371472
0.376005
0.380367
0.384566
0.388608
0.392501
0.39625
0.39986
0.403337
0.406684
0.409903
0.412996
0.415963
0.418804
0.421517
0.424097
0.42654
0.428838
0.430983
0.432965
0.434771
0.436388
0.437801
0.438992
0.439944
0.440638
0.441053
0.441169
0.440966
0.440421
0.439515
0.438229
0.436542
0.434437
0.431899
0.428913
0.425467
0.421552
0.417159
0.412285
0.406927
0.401087
0.394769
0.387979
0.380727
0.373026
0.364892
0.356343
0.3474
0.338086
0.328427
0.318451
0.308187
0.297667
0.286924
0.275992
0.264906
0.253703
0.242417
0.231092
0.219744
0.208477
0.19712
0.186418
0.174216
0.167955
0.146501
0.174082
0.174082
-0.000483305
0.000483305
0.0062834
0.014825
0.024693
0.0352056
0.0460684
0.0571535
0.0683964
0.0797547
0.0911921
0.102673
0.114161
0.125618
0.137007
0.14829
0.159435
0.17041
0.181187
0.191744
0.202061
0.212124
0.221921
0.231445
0.240691
0.249657
0.258342
0.266748
0.274879
0.28274
0.290335
0.297671
0.304754
0.311591
0.318191
0.324559
0.330703
0.336629
0.342344
0.347854
0.353165
0.358281
0.363207
0.367944
0.372496
0.376862
0.381041
0.38503
0.388825
0.392417
0.3958
0.398961
0.401889
0.404567
0.40698
0.40911
0.410936
0.412439
0.413596
0.414386
0.414786
0.414776
0.414333
0.41344
0.412077
0.410228
0.40788
0.405021
0.401642
0.397739
0.393307
0.388349
0.382868
0.376872
0.370372
0.363381
0.355918
0.348003
0.339657
0.330909
0.321785
0.312315
0.302533
0.292472
0.282168
0.271656
0.260975
0.250162
0.239256
0.228295
0.217316
0.206357
0.19546
0.184644
0.173995
0.163392
0.153344
0.142501
0.135073
0.119722
0.127795
0.127795
4.08322e-05
-4.08322e-05
0.000817245
0.00283838
0.00606915
0.0105077
0.0161103
0.0227913
0.0304364
0.0389186
0.0481101
0.0578891
0.0681419
0.0787647
0.0896628
0.100751
0.111952
0.123199
0.134432
0.145599
0.156657
0.167566
0.178296
0.188821
0.19912
0.209178
0.218982
0.228523
0.237796
0.246797
0.255525
0.263982
0.272168
0.280089
0.287747
0.295148
0.302297
0.309199
0.31586
0.322284
0.328474
0.334434
0.340167
0.345672
0.350949
0.355996
0.360807
0.365376
0.369695
0.37375
0.37753
0.381018
0.384196
0.387045
0.389545
0.391672
0.393403
0.394717
0.395588
0.395995
0.395916
0.395331
0.394222
0.392574
0.390374
0.387613
0.384284
0.380384
0.375916
0.370883
0.365295
0.359163
0.352505
0.34534
0.337692
0.329586
0.321051
0.31212
0.302826
0.293206
0.283297
0.273138
0.262769
0.252231
0.241566
0.230813
0.220014
0.209209
0.198439
0.18774
0.177151
0.166706
0.156442
0.146378
0.136585
0.126959
0.117872
0.108326
0.100478
0.0894389
0.0793166
0.0793166
2.2059e-05
-2.2059e-05
0.000114971
0.000803975
0.00239726
0.00512891
0.00909723
0.0142977
0.0206594
0.0280718
0.0364036
0.0455167
0.0552757
0.0655533
0.0762328
0.087209
0.0983885
0.109689
0.121037
0.132371
0.143638
0.15479
0.16579
0.176606
0.187212
0.197588
0.207717
0.217587
0.22719
0.236521
0.245577
0.254356
0.26286
0.27109
0.27905
0.286745
0.294179
0.301355
0.308278
0.314951
0.321376
0.327555
0.333487
0.339169
0.344599
0.34977
0.354673
0.359297
0.363629
0.367653
0.37135
0.374702
0.377685
0.380276
0.382452
0.384187
0.385456
0.386236
0.386504
0.386237
0.385418
0.384029
0.382056
0.379491
0.376326
0.372559
0.368193
0.363232
0.357687
0.351573
0.344907
0.337713
0.330016
0.321845
0.313232
0.304213
0.294825
0.285108
0.275102
0.26485
0.254395
0.243781
0.233051
0.22225
0.211421
0.200606
0.189846
0.179181
0.16865
0.158288
0.148131
0.13821
0.128556
0.119188
0.110155
0.101373
0.0930957
0.084429
0.0766032
0.0678863
0.0420391
0.0420391
2.2059e-05
-2.2059e-05
0.000114971
0.000803975
0.00239726
0.00512891
0.00909723
0.0142977
0.0206594
0.0280718
0.0364036
0.0455167
0.0552757
0.0655533
0.0762328
0.087209
0.0983885
0.109689
0.121037
0.132371
0.143638
0.15479
0.16579
0.176606
0.187212
0.197588
0.207717
0.217587
0.22719
0.236521
0.245577
0.254356
0.26286
0.27109
0.27905
0.286745
0.294179
0.301355
0.308278
0.314951
0.321376
0.327555
0.333487
0.339169
0.344599
0.34977
0.354673
0.359297
0.363629
0.367653
0.37135
0.374702
0.377685
0.380276
0.382452
0.384187
0.385456
0.386236
0.386504
0.386237
0.385418
0.384029
0.382056
0.379491
0.376326
0.372559
0.368193
0.363232
0.357687
0.351573
0.344907
0.337713
0.330016
0.321845
0.313232
0.304213
0.294825
0.285108
0.275102
0.26485
0.254395
0.243781
0.233051
0.22225
0.211421
0.200606
0.189846
0.179181
0.16865
0.158288
0.148131
0.13821
0.128556
0.119188
0.110155
0.101373
0.0930957
0.084429
0.0766032
0.0678863
0.0420391
0.0420391
