# vtk DataFile Version 2.0
FlowField
ASCII
DATASET STRUCTURED_GRID
DIMENSIONS 102 1 12 
POINTS 1224 double
0 0 0
0.4 0 0
0.8 0 0
1.2 0 0
1.6 0 0
2 0 0
2.4 0 0
2.8 0 0
3.2 0 0
3.6 0 0
4 0 0
4.4 0 0
4.8 0 0
5.2 0 0
5.6 0 0
6 0 0
6.4 0 0
6.8 0 0
7.2 0 0
7.6 0 0
8 0 0
8.4 0 0
8.8 0 0
9.2 0 0
9.6 0 0
10 0 0
10.4 0 0
10.8 0 0
11.2 0 0
11.6 0 0
12 0 0
12.4 0 0
12.8 0 0
13.2 0 0
13.6 0 0
14 0 0
14.4 0 0
14.8 0 0
15.2 0 0
15.6 0 0
16 0 0
16.4 0 0
16.8 0 0
17.2 0 0
17.6 0 0
18 0 0
18.4 0 0
18.8 0 0
19.2 0 0
19.6 0 0
20 0 0
20.4 0 0
20.8 0 0
21.2 0 0
21.6 0 0
22 0 0
22.4 0 0
22.8 0 0
23.2 0 0
23.6 0 0
24 0 0
24.4 0 0
24.8 0 0
25.2 0 0
25.6 0 0
26 0 0
26.4 0 0
26.8 0 0
27.2 0 0
27.6 0 0
28 0 0
28.4 0 0
28.8 0 0
29.2 0 0
29.6 0 0
30 0 0
30.4 0 0
30.8 0 0
31.2 0 0
31.6 0 0
32 0 0
32.4 0 0
32.8 0 0
33.2 0 0
33.6 0 0
34 0 0
34.4 0 0
34.8 0 0
35.2 0 0
35.6 0 0
36 0 0
36.4 0 0
36.8 0 0
37.2 0 0
37.6 0 0
38 0 0
38.4 0 0
38.8 0 0
39.2 0 0
39.6 0 0
40 0 0
40.4 0 0
0 0.1 0
0.4 0.1 0
0.8 0.1 0
1.2 0.1 0
1.6 0.1 0
2 0.1 0
2.4 0.1 0
2.8 0.1 0
3.2 0.1 0
3.6 0.1 0
4 0.1 0
4.4 0.1 0
4.8 0.1 0
5.2 0.1 0
5.6 0.1 0
6 0.1 0
6.4 0.1 0
6.8 0.1 0
7.2 0.1 0
7.6 0.1 0
8 0.1 0
8.4 0.1 0
8.8 0.1 0
9.2 0.1 0
9.6 0.1 0
10 0.1 0
10.4 0.1 0
10.8 0.1 0
11.2 0.1 0
11.6 0.1 0
12 0.1 0
12.4 0.1 0
12.8 0.1 0
13.2 0.1 0
13.6 0.1 0
14 0.1 0
14.4 0.1 0
14.8 0.1 0
15.2 0.1 0
15.6 0.1 0
16 0.1 0
16.4 0.1 0
16.8 0.1 0
17.2 0.1 0
17.6 0.1 0
18 0.1 0
18.4 0.1 0
18.8 0.1 0
19.2 0.1 0
19.6 0.1 0
20 0.1 0
20.4 0.1 0
20.8 0.1 0
21.2 0.1 0
21.6 0.1 0
22 0.1 0
22.4 0.1 0
22.8 0.1 0
23.2 0.1 0
23.6 0.1 0
24 0.1 0
24.4 0.1 0
24.8 0.1 0
25.2 0.1 0
25.6 0.1 0
26 0.1 0
26.4 0.1 0
26.8 0.1 0
27.2 0.1 0
27.6 0.1 0
28 0.1 0
28.4 0.1 0
28.8 0.1 0
29.2 0.1 0
29.6 0.1 0
30 0.1 0
30.4 0.1 0
30.8 0.1 0
31.2 0.1 0
31.6 0.1 0
32 0.1 0
32.4 0.1 0
32.8 0.1 0
33.2 0.1 0
33.6 0.1 0
34 0.1 0
34.4 0.1 0
34.8 0.1 0
35.2 0.1 0
35.6 0.1 0
36 0.1 0
36.4 0.1 0
36.8 0.1 0
37.2 0.1 0
37.6 0.1 0
38 0.1 0
38.4 0.1 0
38.8 0.1 0
39.2 0.1 0
39.6 0.1 0
40 0.1 0
40.4 0.1 0
0 0.2 0
0.4 0.2 0
0.8 0.2 0
1.2 0.2 0
1.6 0.2 0
2 0.2 0
2.4 0.2 0
2.8 0.2 0
3.2 0.2 0
3.6 0.2 0
4 0.2 0
4.4 0.2 0
4.8 0.2 0
5.2 0.2 0
5.6 0.2 0
6 0.2 0
6.4 0.2 0
6.8 0.2 0
7.2 0.2 0
7.6 0.2 0
8 0.2 0
8.4 0.2 0
8.8 0.2 0
9.2 0.2 0
9.6 0.2 0
10 0.2 0
10.4 0.2 0
10.8 0.2 0
11.2 0.2 0
11.6 0.2 0
12 0.2 0
12.4 0.2 0
12.8 0.2 0
13.2 0.2 0
13.6 0.2 0
14 0.2 0
14.4 0.2 0
14.8 0.2 0
15.2 0.2 0
15.6 0.2 0
16 0.2 0
16.4 0.2 0
16.8 0.2 0
17.2 0.2 0
17.6 0.2 0
18 0.2 0
18.4 0.2 0
18.8 0.2 0
19.2 0.2 0
19.6 0.2 0
20 0.2 0
20.4 0.2 0
20.8 0.2 0
21.2 0.2 0
21.6 0.2 0
22 0.2 0
22.4 0.2 0
22.8 0.2 0
23.2 0.2 0
23.6 0.2 0
24 0.2 0
24.4 0.2 0
24.8 0.2 0
25.2 0.2 0
25.6 0.2 0
26 0.2 0
26.4 0.2 0
26.8 0.2 0
27.2 0.2 0
27.6 0.2 0
28 0.2 0
28.4 0.2 0
28.8 0.2 0
29.2 0.2 0
29.6 0.2 0
30 0.2 0
30.4 0.2 0
30.8 0.2 0
31.2 0.2 0
31.6 0.2 0
32 0.2 0
32.4 0.2 0
32.8 0.2 0
33.2 0.2 0
33.6 0.2 0
34 0.2 0
34.4 0.2 0
34.8 0.2 0
35.2 0.2 0
35.6 0.2 0
36 0.2 0
36.4 0.2 0
36.8 0.2 0
37.2 0.2 0
37.6 0.2 0
38 0.2 0
38.4 0.2 0
38.8 0.2 0
39.2 0.2 0
39.6 0.2 0
40 0.2 0
40.4 0.2 0
0 0.3 0
0.4 0.3 0
0.8 0.3 0
1.2 0.3 0
1.6 0.3 0
2 0.3 0
2.4 0.3 0
2.8 0.3 0
3.2 0.3 0
3.6 0.3 0
4 0.3 0
4.4 0.3 0
4.8 0.3 0
5.2 0.3 0
5.6 0.3 0
6 0.3 0
6.4 0.3 0
6.8 0.3 0
7.2 0.3 0
7.6 0.3 0
8 0.3 0
8.4 0.3 0
8.8 0.3 0
9.2 0.3 0
9.6 0.3 0
10 0.3 0
10.4 0.3 0
10.8 0.3 0
11.2 0.3 0
11.6 0.3 0
12 0.3 0
12.4 0.3 0
12.8 0.3 0
13.2 0.3 0
13.6 0.3 0
14 0.3 0
14.4 0.3 0
14.8 0.3 0
15.2 0.3 0
15.6 0.3 0
16 0.3 0
16.4 0.3 0
16.8 0.3 0
17.2 0.3 0
17.6 0.3 0
18 0.3 0
18.4 0.3 0
18.8 0.3 0
19.2 0.3 0
19.6 0.3 0
20 0.3 0
20.4 0.3 0
20.8 0.3 0
21.2 0.3 0
21.6 0.3 0
22 0.3 0
22.4 0.3 0
22.8 0.3 0
23.2 0.3 0
23.6 0.3 0
24 0.3 0
24.4 0.3 0
24.8 0.3 0
25.2 0.3 0
25.6 0.3 0
26 0.3 0
26.4 0.3 0
26.8 0.3 0
27.2 0.3 0
27.6 0.3 0
28 0.3 0
28.4 0.3 0
28.8 0.3 0
29.2 0.3 0
29.6 0.3 0
30 0.3 0
30.4 0.3 0
30.8 0.3 0
31.2 0.3 0
31.6 0.3 0
32 0.3 0
32.4 0.3 0
32.8 0.3 0
33.2 0.3 0
33.6 0.3 0
34 0.3 0
34.4 0.3 0
34.8 0.3 0
35.2 0.3 0
35.6 0.3 0
36 0.3 0
36.4 0.3 0
36.8 0.3 0
37.2 0.3 0
37.6 0.3 0
38 0.3 0
38.4 0.3 0
38.8 0.3 0
39.2 0.3 0
39.6 0.3 0
40 0.3 0
40.4 0.3 0
0 0.4 0
0.4 0.4 0
0.8 0.4 0
1.2 0.4 0
1.6 0.4 0
2 0.4 0
2.4 0.4 0
2.8 0.4 0
3.2 0.4 0
3.6 0.4 0
4 0.4 0
4.4 0.4 0
4.8 0.4 0
5.2 0.4 0
5.6 0.4 0
6 0.4 0
6.4 0.4 0
6.8 0.4 0
7.2 0.4 0
7.6 0.4 0
8 0.4 0
8.4 0.4 0
8.8 0.4 0
9.2 0.4 0
9.6 0.4 0
10 0.4 0
10.4 0.4 0
10.8 0.4 0
11.2 0.4 0
11.6 0.4 0
12 0.4 0
12.4 0.4 0
12.8 0.4 0
13.2 0.4 0
13.6 0.4 0
14 0.4 0
14.4 0.4 0
14.8 0.4 0
15.2 0.4 0
15.6 0.4 0
16 0.4 0
16.4 0.4 0
16.8 0.4 0
17.2 0.4 0
17.6 0.4 0
18 0.4 0
18.4 0.4 0
18.8 0.4 0
19.2 0.4 0
19.6 0.4 0
20 0.4 0
20.4 0.4 0
20.8 0.4 0
21.2 0.4 0
21.6 0.4 0
22 0.4 0
22.4 0.4 0
22.8 0.4 0
23.2 0.4 0
23.6 0.4 0
24 0.4 0
24.4 0.4 0
24.8 0.4 0
25.2 0.4 0
25.6 0.4 0
26 0.4 0
26.4 0.4 0
26.8 0.4 0
27.2 0.4 0
27.6 0.4 0
28 0.4 0
28.4 0.4 0
28.8 0.4 0
29.2 0.4 0
29.6 0.4 0
30 0.4 0
30.4 0.4 0
30.8 0.4 0
31.2 0.4 0
31.6 0.4 0
32 0.4 0
32.4 0.4 0
32.8 0.4 0
33.2 0.4 0
33.6 0.4 0
34 0.4 0
34.4 0.4 0
34.8 0.4 0
35.2 0.4 0
35.6 0.4 0
36 0.4 0
36.4 0.4 0
36.8 0.4 0
37.2 0.4 0
37.6 0.4 0
38 0.4 0
38.4 0.4 0
38.8 0.4 0
39.2 0.4 0
39.6 0.4 0
40 0.4 0
40.4 0.4 0
0 0.5 0
0.4 0.5 0
0.8 0.5 0
1.2 0.5 0
1.6 0.5 0
2 0.5 0
2.4 0.5 0
2.8 0.5 0
3.2 0.5 0
3.6 0.5 0
4 0.5 0
4.4 0.5 0
4.8 0.5 0
5.2 0.5 0
5.6 0.5 0
6 0.5 0
6.4 0.5 0
6.8 0.5 0
7.2 0.5 0
7.6 0.5 0
8 0.5 0
8.4 0.5 0
8.8 0.5 0
9.2 0.5 0
9.6 0.5 0
10 0.5 0
10.4 0.5 0
10.8 0.5 0
11.2 0.5 0
11.6 0.5 0
12 0.5 0
12.4 0.5 0
12.8 0.5 0
13.2 0.5 0
13.6 0.5 0
14 0.5 0
14.4 0.5 0
14.8 0.5 0
15.2 0.5 0
15.6 0.5 0
16 0.5 0
16.4 0.5 0
16.8 0.5 0
17.2 0.5 0
17.6 0.5 0
18 0.5 0
18.4 0.5 0
18.8 0.5 0
19.2 0.5 0
19.6 0.5 0
20 0.5 0
20.4 0.5 0
20.8 0.5 0
21.2 0.5 0
21.6 0.5 0
22 0.5 0
22.4 0.5 0
22.8 0.5 0
23.2 0.5 0
23.6 0.5 0
24 0.5 0
24.4 0.5 0
24.8 0.5 0
25.2 0.5 0
25.6 0.5 0
26 0.5 0
26.4 0.5 0
26.8 0.5 0
27.2 0.5 0
27.6 0.5 0
28 0.5 0
28.4 0.5 0
28.8 0.5 0
29.2 0.5 0
29.6 0.5 0
30 0.5 0
30.4 0.5 0
30.8 0.5 0
31.2 0.5 0
31.6 0.5 0
32 0.5 0
32.4 0.5 0
32.8 0.5 0
33.2 0.5 0
33.6 0.5 0
34 0.5 0
34.4 0.5 0
34.8 0.5 0
35.2 0.5 0
35.6 0.5 0
36 0.5 0
36.4 0.5 0
36.8 0.5 0
37.2 0.5 0
37.6 0.5 0
38 0.5 0
38.4 0.5 0
38.8 0.5 0
39.2 0.5 0
39.6 0.5 0
40 0.5 0
40.4 0.5 0
0 0.6 0
0.4 0.6 0
0.8 0.6 0
1.2 0.6 0
1.6 0.6 0
2 0.6 0
2.4 0.6 0
2.8 0.6 0
3.2 0.6 0
3.6 0.6 0
4 0.6 0
4.4 0.6 0
4.8 0.6 0
5.2 0.6 0
5.6 0.6 0
6 0.6 0
6.4 0.6 0
6.8 0.6 0
7.2 0.6 0
7.6 0.6 0
8 0.6 0
8.4 0.6 0
8.8 0.6 0
9.2 0.6 0
9.6 0.6 0
10 0.6 0
10.4 0.6 0
10.8 0.6 0
11.2 0.6 0
11.6 0.6 0
12 0.6 0
12.4 0.6 0
12.8 0.6 0
13.2 0.6 0
13.6 0.6 0
14 0.6 0
14.4 0.6 0
14.8 0.6 0
15.2 0.6 0
15.6 0.6 0
16 0.6 0
16.4 0.6 0
16.8 0.6 0
17.2 0.6 0
17.6 0.6 0
18 0.6 0
18.4 0.6 0
18.8 0.6 0
19.2 0.6 0
19.6 0.6 0
20 0.6 0
20.4 0.6 0
20.8 0.6 0
21.2 0.6 0
21.6 0.6 0
22 0.6 0
22.4 0.6 0
22.8 0.6 0
23.2 0.6 0
23.6 0.6 0
24 0.6 0
24.4 0.6 0
24.8 0.6 0
25.2 0.6 0
25.6 0.6 0
26 0.6 0
26.4 0.6 0
26.8 0.6 0
27.2 0.6 0
27.6 0.6 0
28 0.6 0
28.4 0.6 0
28.8 0.6 0
29.2 0.6 0
29.6 0.6 0
30 0.6 0
30.4 0.6 0
30.8 0.6 0
31.2 0.6 0
31.6 0.6 0
32 0.6 0
32.4 0.6 0
32.8 0.6 0
33.2 0.6 0
33.6 0.6 0
34 0.6 0
34.4 0.6 0
34.8 0.6 0
35.2 0.6 0
35.6 0.6 0
36 0.6 0
36.4 0.6 0
36.8 0.6 0
37.2 0.6 0
37.6 0.6 0
38 0.6 0
38.4 0.6 0
38.8 0.6 0
39.2 0.6 0
39.6 0.6 0
40 0.6 0
40.4 0.6 0
0 0.7 0
0.4 0.7 0
0.8 0.7 0
1.2 0.7 0
1.6 0.7 0
2 0.7 0
2.4 0.7 0
2.8 0.7 0
3.2 0.7 0
3.6 0.7 0
4 0.7 0
4.4 0.7 0
4.8 0.7 0
5.2 0.7 0
5.6 0.7 0
6 0.7 0
6.4 0.7 0
6.8 0.7 0
7.2 0.7 0
7.6 0.7 0
8 0.7 0
8.4 0.7 0
8.8 0.7 0
9.2 0.7 0
9.6 0.7 0
10 0.7 0
10.4 0.7 0
10.8 0.7 0
11.2 0.7 0
11.6 0.7 0
12 0.7 0
12.4 0.7 0
12.8 0.7 0
13.2 0.7 0
13.6 0.7 0
14 0.7 0
14.4 0.7 0
14.8 0.7 0
15.2 0.7 0
15.6 0.7 0
16 0.7 0
16.4 0.7 0
16.8 0.7 0
17.2 0.7 0
17.6 0.7 0
18 0.7 0
18.4 0.7 0
18.8 0.7 0
19.2 0.7 0
19.6 0.7 0
20 0.7 0
20.4 0.7 0
20.8 0.7 0
21.2 0.7 0
21.6 0.7 0
22 0.7 0
22.4 0.7 0
22.8 0.7 0
23.2 0.7 0
23.6 0.7 0
24 0.7 0
24.4 0.7 0
24.8 0.7 0
25.2 0.7 0
25.6 0.7 0
26 0.7 0
26.4 0.7 0
26.8 0.7 0
27.2 0.7 0
27.6 0.7 0
28 0.7 0
28.4 0.7 0
28.8 0.7 0
29.2 0.7 0
29.6 0.7 0
30 0.7 0
30.4 0.7 0
30.8 0.7 0
31.2 0.7 0
31.6 0.7 0
32 0.7 0
32.4 0.7 0
32.8 0.7 0
33.2 0.7 0
33.6 0.7 0
34 0.7 0
34.4 0.7 0
34.8 0.7 0
35.2 0.7 0
35.6 0.7 0
36 0.7 0
36.4 0.7 0
36.8 0.7 0
37.2 0.7 0
37.6 0.7 0
38 0.7 0
38.4 0.7 0
38.8 0.7 0
39.2 0.7 0
39.6 0.7 0
40 0.7 0
40.4 0.7 0
0 0.8 0
0.4 0.8 0
0.8 0.8 0
1.2 0.8 0
1.6 0.8 0
2 0.8 0
2.4 0.8 0
2.8 0.8 0
3.2 0.8 0
3.6 0.8 0
4 0.8 0
4.4 0.8 0
4.8 0.8 0
5.2 0.8 0
5.6 0.8 0
6 0.8 0
6.4 0.8 0
6.8 0.8 0
7.2 0.8 0
7.6 0.8 0
8 0.8 0
8.4 0.8 0
8.8 0.8 0
9.2 0.8 0
9.6 0.8 0
10 0.8 0
10.4 0.8 0
10.8 0.8 0
11.2 0.8 0
11.6 0.8 0
12 0.8 0
12.4 0.8 0
12.8 0.8 0
13.2 0.8 0
13.6 0.8 0
14 0.8 0
14.4 0.8 0
14.8 0.8 0
15.2 0.8 0
15.6 0.8 0
16 0.8 0
16.4 0.8 0
16.8 0.8 0
17.2 0.8 0
17.6 0.8 0
18 0.8 0
18.4 0.8 0
18.8 0.8 0
19.2 0.8 0
19.6 0.8 0
20 0.8 0
20.4 0.8 0
20.8 0.8 0
21.2 0.8 0
21.6 0.8 0
22 0.8 0
22.4 0.8 0
22.8 0.8 0
23.2 0.8 0
23.6 0.8 0
24 0.8 0
24.4 0.8 0
24.8 0.8 0
25.2 0.8 0
25.6 0.8 0
26 0.8 0
26.4 0.8 0
26.8 0.8 0
27.2 0.8 0
27.6 0.8 0
28 0.8 0
28.4 0.8 0
28.8 0.8 0
29.2 0.8 0
29.6 0.8 0
30 0.8 0
30.4 0.8 0
30.8 0.8 0
31.2 0.8 0
31.6 0.8 0
32 0.8 0
32.4 0.8 0
32.8 0.8 0
33.2 0.8 0
33.6 0.8 0
34 0.8 0
34.4 0.8 0
34.8 0.8 0
35.2 0.8 0
35.6 0.8 0
36 0.8 0
36.4 0.8 0
36.8 0.8 0
37.2 0.8 0
37.6 0.8 0
38 0.8 0
38.4 0.8 0
38.8 0.8 0
39.2 0.8 0
39.6 0.8 0
40 0.8 0
40.4 0.8 0
0 0.9 0
0.4 0.9 0
0.8 0.9 0
1.2 0.9 0
1.6 0.9 0
2 0.9 0
2.4 0.9 0
2.8 0.9 0
3.2 0.9 0
3.6 0.9 0
4 0.9 0
4.4 0.9 0
4.8 0.9 0
5.2 0.9 0
5.6 0.9 0
6 0.9 0
6.4 0.9 0
6.8 0.9 0
7.2 0.9 0
7.6 0.9 0
8 0.9 0
8.4 0.9 0
8.8 0.9 0
9.2 0.9 0
9.6 0.9 0
10 0.9 0
10.4 0.9 0
10.8 0.9 0
11.2 0.9 0
11.6 0.9 0
12 0.9 0
12.4 0.9 0
12.8 0.9 0
13.2 0.9 0
13.6 0.9 0
14 0.9 0
14.4 0.9 0
14.8 0.9 0
15.2 0.9 0
15.6 0.9 0
16 0.9 0
16.4 0.9 0
16.8 0.9 0
17.2 0.9 0
17.6 0.9 0
18 0.9 0
18.4 0.9 0
18.8 0.9 0
19.2 0.9 0
19.6 0.9 0
20 0.9 0
20.4 0.9 0
20.8 0.9 0
21.2 0.9 0
21.6 0.9 0
22 0.9 0
22.4 0.9 0
22.8 0.9 0
23.2 0.9 0
23.6 0.9 0
24 0.9 0
24.4 0.9 0
24.8 0.9 0
25.2 0.9 0
25.6 0.9 0
26 0.9 0
26.4 0.9 0
26.8 0.9 0
27.2 0.9 0
27.6 0.9 0
28 0.9 0
28.4 0.9 0
28.8 0.9 0
29.2 0.9 0
29.6 0.9 0
30 0.9 0
30.4 0.9 0
30.8 0.9 0
31.2 0.9 0
31.6 0.9 0
32 0.9 0
32.4 0.9 0
32.8 0.9 0
33.2 0.9 0
33.6 0.9 0
34 0.9 0
34.4 0.9 0
34.8 0.9 0
35.2 0.9 0
35.6 0.9 0
36 0.9 0
36.4 0.9 0
36.8 0.9 0
37.2 0.9 0
37.6 0.9 0
38 0.9 0
38.4 0.9 0
38.8 0.9 0
39.2 0.9 0
39.6 0.9 0
40 0.9 0
40.4 0.9 0
0 1 0
0.4 1 0
0.8 1 0
1.2 1 0
1.6 1 0
2 1 0
2.4 1 0
2.8 1 0
3.2 1 0
3.6 1 0
4 1 0
4.4 1 0
4.8 1 0
5.2 1 0
5.6 1 0
6 1 0
6.4 1 0
6.8 1 0
7.2 1 0
7.6 1 0
8 1 0
8.4 1 0
8.8 1 0
9.2 1 0
9.6 1 0
10 1 0
10.4 1 0
10.8 1 0
11.2 1 0
11.6 1 0
12 1 0
12.4 1 0
12.8 1 0
13.2 1 0
13.6 1 0
14 1 0
14.4 1 0
14.8 1 0
15.2 1 0
15.6 1 0
16 1 0
16.4 1 0
16.8 1 0
17.2 1 0
17.6 1 0
18 1 0
18.4 1 0
18.8 1 0
19.2 1 0
19.6 1 0
20 1 0
20.4 1 0
20.8 1 0
21.2 1 0
21.6 1 0
22 1 0
22.4 1 0
22.8 1 0
23.2 1 0
23.6 1 0
24 1 0
24.4 1 0
24.8 1 0
25.2 1 0
25.6 1 0
26 1 0
26.4 1 0
26.8 1 0
27.2 1 0
27.6 1 0
28 1 0
28.4 1 0
28.8 1 0
29.2 1 0
29.6 1 0
30 1 0
30.4 1 0
30.8 1 0
31.2 1 0
31.6 1 0
32 1 0
32.4 1 0
32.8 1 0
33.2 1 0
33.6 1 0
34 1 0
34.4 1 0
34.8 1 0
35.2 1 0
35.6 1 0
36 1 0
36.4 1 0
36.8 1 0
37.2 1 0
37.6 1 0
38 1 0
38.4 1 0
38.8 1 0
39.2 1 0
39.6 1 0
40 1 0
40.4 1 0
0 1.1 0
0.4 1.1 0
0.8 1.1 0
1.2 1.1 0
1.6 1.1 0
2 1.1 0
2.4 1.1 0
2.8 1.1 0
3.2 1.1 0
3.6 1.1 0
4 1.1 0
4.4 1.1 0
4.8 1.1 0
5.2 1.1 0
5.6 1.1 0
6 1.1 0
6.4 1.1 0
6.8 1.1 0
7.2 1.1 0
7.6 1.1 0
8 1.1 0
8.4 1.1 0
8.8 1.1 0
9.2 1.1 0
9.6 1.1 0
10 1.1 0
10.4 1.1 0
10.8 1.1 0
11.2 1.1 0
11.6 1.1 0
12 1.1 0
12.4 1.1 0
12.8 1.1 0
13.2 1.1 0
13.6 1.1 0
14 1.1 0
14.4 1.1 0
14.8 1.1 0
15.2 1.1 0
15.6 1.1 0
16 1.1 0
16.4 1.1 0
16.8 1.1 0
17.2 1.1 0
17.6 1.1 0
18 1.1 0
18.4 1.1 0
18.8 1.1 0
19.2 1.1 0
19.6 1.1 0
20 1.1 0
20.4 1.1 0
20.8 1.1 0
21.2 1.1 0
21.6 1.1 0
22 1.1 0
22.4 1.1 0
22.8 1.1 0
23.2 1.1 0
23.6 1.1 0
24 1.1 0
24.4 1.1 0
24.8 1.1 0
25.2 1.1 0
25.6 1.1 0
26 1.1 0
26.4 1.1 0
26.8 1.1 0
27.2 1.1 0
27.6 1.1 0
28 1.1 0
28.4 1.1 0
28.8 1.1 0
29.2 1.1 0
29.6 1.1 0
30 1.1 0
30.4 1.1 0
30.8 1.1 0
31.2 1.1 0
31.6 1.1 0
32 1.1 0
32.4 1.1 0
32.8 1.1 0
33.2 1.1 0
33.6 1.1 0
34 1.1 0
34.4 1.1 0
34.8 1.1 0
35.2 1.1 0
35.6 1.1 0
36 1.1 0
36.4 1.1 0
36.8 1.1 0
37.2 1.1 0
37.6 1.1 0
38 1.1 0
38.4 1.1 0
38.8 1.1 0
39.2 1.1 0
39.6 1.1 0
40 1.1 0
40.4 1.1 0

POINT_DATA 1224

SCALARS v double
LOOKUP_TABLE default
0
0
0
0
0
0
0
0
0
0
0
0
0
0
0
0
0
0
0
0
0
0
0
0
0
0
0
0
0
0
0
0
0
0
0
0
0
0
0
0
0
0
0
0
0
0
0
0
0
0
0
0
0
0
0
0
0
0
0
0
0
0
0
0
0
0
0
0
0
0
0
0
0
0
0
0
0
0
0
0
0
0
0
0
0
0
0
0
0
0
0
0
0
0
0
0
0
0
0
0
0
0
-0.00751344
0.00751344
0.0146552
0.0162812
0.0149618
0.0125487
0.0100747
0.0079588
0.00628243
0.00499021
0.00399567
0.00322206
0.00261164
0.00212353
0.00172905
0.00140773
0.00114463
0.000928459
0.000750535
0.000604012
0.000483416
0.000384311
0.000303062
0.000236671
0.000182642
0.000138891
0.00010367
7.55104e-05
5.31776e-05
3.56329e-05
2.20062e-05
1.1555e-05
3.68825e-06
-2.31576e-06
-6.66718e-06
-9.65003e-06
-1.15434e-05
-1.25916e-05
-1.29988e-05
-1.29318e-05
-1.25247e-05
-1.18839e-05
-1.10926e-05
-1.02151e-05
-9.29982e-06
-8.3829e-06
-7.49025e-06
-6.63986e-06
-5.84345e-06
-5.108e-06
-4.43679e-06
-3.83042e-06
-3.28753e-06
-2.80537e-06
-2.38028e-06
-2.00807e-06
-1.68424e-06
-1.40423e-06
-1.16353e-06
-9.57817e-07
-7.83017e-07
-6.35337e-07
-5.11301e-07
-4.07751e-07
-3.21852e-07
-2.51072e-07
-1.93174e-07
-1.46189e-07
-1.08397e-07
-7.83024e-08
-5.46125e-08
-3.62133e-08
-2.21497e-08
-1.16093e-08
-3.89391e-09
1.44724e-09
5.04478e-09
7.34771e-09
8.70099e-09
9.37516e-09
9.57863e-09
9.47107e-09
9.16649e-09
8.76275e-09
8.26252e-09
7.85753e-09
6.86244e-09
7.1578e-09
-1.3745e-10
6.53697e-09
-8.627e-08
-1.00856e-08
-1.25923e-06
-4.78539e-07
-1.7347e-05
-1.02464e-05
-0.000240812
-0.00016871
-0.00349307
-0.00153827
-0.0477942
-0.0477942
-0.00621567
0.00621567
0.0142999
0.0183624
0.0194157
0.0185586
0.0167091
0.0144992
0.0122985
0.0102885
0.00853603
0.00704673
0.00579863
0.00476022
0.00389924
0.00318648
0.00259682
0.00210924
0.00170635
0.00137381
0.00109978
0.000874468
0.000689743
0.000538829
0.000416057
0.000316677
0.000236698
0.000172767
0.000122069
8.22342e-05
5.12841e-05
2.75386e-05
9.65294e-06
-3.76981e-06
-1.35591e-05
-2.03682e-05
-2.47859e-05
-2.73262e-05
-2.84253e-05
-2.84455e-05
-2.76819e-05
-2.63714e-05
-2.47013e-05
-2.28173e-05
-2.08305e-05
-1.88242e-05
-1.6859e-05
-1.49776e-05
-1.32083e-05
-1.15686e-05
-1.00674e-05
-8.70752e-06
-7.48687e-06
-6.40023e-06
-5.44014e-06
-4.59774e-06
-3.86339e-06
-3.22719e-06
-2.6793e-06
-2.21019e-06
-1.81083e-06
-1.47279e-06
-1.18832e-06
-9.5035e-07
-7.5251e-07
-5.89108e-07
-4.55095e-07
-3.46024e-07
-2.58004e-07
-1.87648e-07
-1.32024e-07
-8.8605e-08
-5.52228e-08
-3.00244e-08
-1.14325e-08
1.77993e-09
1.07777e-08
1.66001e-08
2.00761e-08
2.18635e-08
2.24753e-08
2.23076e-08
2.16501e-08
2.07423e-08
1.9643e-08
1.87338e-08
1.68835e-08
1.76601e-08
5.93829e-09
2.5148e-08
-1.19277e-07
1.26064e-07
-1.814e-06
1.25259e-06
-2.50769e-05
1.34191e-05
-0.000347829
0.000140674
-0.00482119
0.000857422
-0.061277
-0.061277
-0.00401801
0.00401801
0.00987185
0.0135457
0.0153924
0.0158461
0.0153379
0.0142366
0.0128244
0.0112996
0.00979083
0.00837399
0.00708835
0.00594912
0.00495668
0.00410299
0.00337575
0.002761
0.00224467
0.00181342
0.00145505
0.00115869
0.0009148
0.000715085
0.000552405
0.000420648
0.000314607
0.000229866
0.00016269
0.000109933
6.89558e-05
3.75364e-05
1.38528e-05
-3.76283e-06
-1.65527e-05
-2.54678e-05
-3.13051e-05
-3.47323e-05
-3.63051e-05
-3.64809e-05
-3.56328e-05
-3.40612e-05
-3.20051e-05
-2.96518e-05
-2.7146e-05
-2.45969e-05
-2.20852e-05
-1.96684e-05
-1.73858e-05
-1.52622e-05
-1.33113e-05
-1.15383e-05
-9.94217e-06
-8.51737e-06
-7.25524e-06
-6.14508e-06
-5.17504e-06
-4.33272e-06
-3.6057e-06
-2.98183e-06
-2.44955e-06
-1.998e-06
-1.61713e-06
-1.29777e-06
-1.0316e-06
-8.11185e-07
-6.29889e-07
-4.81869e-07
-3.61997e-07
-2.65799e-07
-1.894e-07
-1.29453e-07
-8.30853e-08
-4.78277e-08
-2.16177e-08
-2.65219e-09
1.04758e-08
1.91203e-08
2.43964e-08
2.72092e-08
2.82816e-08
2.81834e-08
2.73464e-08
2.61175e-08
2.46455e-08
2.33693e-08
2.11898e-08
2.20663e-08
9.58948e-09
3.66087e-08
-1.20383e-07
2.52509e-07
-1.88979e-06
3.03952e-06
-2.59264e-05
3.6864e-05
-0.000345132
0.000398295
-0.00439119
0.00284662
-0.0516343
-0.0516343
-0.00195405
0.00195405
0.00490746
0.00691943
0.00813032
0.00869008
0.00874623
0.00843553
0.00787796
0.00717309
0.00639888
0.0056127
0.0048539
0.00414726
0.0035064
0.00293694
0.00243901
0.0020093
0.00164248
0.00133225
0.001072
0.000855283
0.000676045
0.000528775
0.00040856
0.000311082
0.000232595
0.000169877
0.000120182
8.1182e-05
5.09157e-05
2.77382e-05
1.02746e-05
-2.64996e-06
-1.1979e-05
-1.84592e-05
-2.26991e-05
-2.51961e-05
-2.63564e-05
-2.65105e-05
-2.59255e-05
-2.4816e-05
-2.33526e-05
-2.16693e-05
-1.98699e-05
-1.80334e-05
-1.62184e-05
-1.44673e-05
-1.28091e-05
-1.12627e-05
-9.83882e-06
-8.54197e-06
-7.37209e-06
-6.32572e-06
-5.39706e-06
-4.57873e-06
-3.86241e-06
-3.23933e-06
-2.70061e-06
-2.23755e-06
-1.8418e-06
-1.50551e-06
-1.22137e-06
-9.82687e-07
-7.83398e-07
-6.18045e-07
-4.81766e-07
-3.70259e-07
-2.79745e-07
-2.06925e-07
-1.48933e-07
-1.03295e-07
-6.78796e-08
-4.08607e-08
-2.0695e-08
-6.04684e-09
4.17522e-09
1.09413e-08
1.50771e-08
1.7268e-08
1.80749e-08
1.79502e-08
1.72455e-08
1.62459e-08
1.50873e-08
1.4119e-08
1.25256e-08
1.34493e-08
4.27612e-09
2.77966e-08
-8.82493e-08
2.30481e-07
-1.31841e-06
2.77368e-06
-1.73777e-05
3.22969e-05
-0.000218919
0.000330259
-0.00260555
0.00238736
-0.0290026
-0.0290026
-5.15687e-10
5.18115e-10
1.26899e-09
1.76002e-09
2.00303e-09
1.99662e-09
1.74126e-09
1.25542e-09
5.87472e-10
-1.81629e-10
-9.4631e-10
-1.59292e-09
-2.01998e-09
-2.15646e-09
-1.97345e-09
-1.48693e-09
-7.51761e-10
1.50697e-10
1.12799e-09
2.09142e-09
2.96768e-09
3.70561e-09
4.2781e-09
4.67975e-09
4.92189e-09
5.02651e-09
5.02051e-09
4.93099e-09
4.78227e-09
4.59421e-09
4.3829e-09
4.15682e-09
3.93539e-09
3.69054e-09
3.45391e-09
3.23062e-09
3.02497e-09
2.83953e-09
2.6749e-09
2.5299e-09
2.40203e-09
2.28806e-09
2.18469e-09
2.08898e-09
1.99856e-09
1.91165e-09
1.82701e-09
1.74383e-09
1.66174e-09
1.58087e-09
1.50179e-09
1.42559e-09
1.35368e-09
1.28764e-09
1.22891e-09
1.17851e-09
1.13676e-09
1.10317e-09
1.07628e-09
1.05371e-09
1.03222e-09
1.00782e-09
9.75926e-10
9.31403e-10
8.68719e-10
7.82016e-10
6.65222e-10
5.12197e-10
3.16925e-10
7.38319e-11
-2.21874e-10
-5.73744e-10
-9.82668e-10
-1.45069e-09
-1.96307e-09
-2.54193e-09
-3.15928e-09
-3.79541e-09
-4.43098e-09
-5.04559e-09
-5.61627e-09
-6.11777e-09
-6.52518e-09
-6.81759e-09
-6.98102e-09
-7.01055e-09
-6.91227e-09
-6.69562e-09
-6.40839e-09
-6.00058e-09
-5.61971e-09
-5.21629e-09
-4.90183e-09
-4.64142e-09
-4.49538e-09
-4.43928e-09
-4.36161e-09
-4.52451e-09
-3.88009e-09
-4.61351e-09
-1.1742e-09
-1.14147e-09
0.00195405
-0.00195405
-0.00490745
-0.00691943
-0.00813032
-0.00869008
-0.00874622
-0.00843552
-0.00787796
-0.00717309
-0.00639889
-0.0056127
-0.0048539
-0.00414726
-0.00350641
-0.00293694
-0.00243901
-0.0020093
-0.00164248
-0.00133225
-0.001072
-0.000855276
-0.000676036
-0.000528766
-0.000408551
-0.000311073
-0.000232585
-0.000169868
-0.000120173
-8.11734e-05
-5.09075e-05
-2.77304e-05
-1.02672e-05
2.65693e-06
1.19855e-05
1.84653e-05
2.27048e-05
2.52015e-05
2.63615e-05
2.65153e-05
2.59301e-05
2.48204e-05
2.33568e-05
2.16733e-05
1.98738e-05
1.80371e-05
1.6222e-05
1.44707e-05
1.28124e-05
1.12658e-05
9.84175e-06
8.54475e-06
7.37473e-06
6.32824e-06
5.39947e-06
4.58104e-06
3.86464e-06
3.24149e-06
2.70271e-06
2.2396e-06
1.8438e-06
1.50744e-06
1.22323e-06
9.84443e-07
7.85015e-07
6.19476e-07
4.82953e-07
3.71133e-07
2.80225e-07
2.06921e-07
1.48347e-07
1.02021e-07
6.58146e-08
3.78975e-08
1.67505e-08
1.01857e-09
-1.03504e-08
-1.82973e-08
-2.3608e-08
-2.69277e-08
-2.87744e-08
-2.95547e-08
-2.95763e-08
-2.90888e-08
-2.82054e-08
-2.72712e-08
-2.54824e-08
-2.60113e-08
-1.6301e-08
-3.91524e-08
7.76097e-08
-2.40465e-07
1.309e-06
-2.78272e-06
1.73689e-05
-3.23056e-05
0.00021891
-0.000330268
0.00260554
-0.00238737
0.0290026
0.0290026
0.00401801
-0.00401801
-0.00987185
-0.0135457
-0.0153924
-0.0158461
-0.0153379
-0.0142366
-0.0128244
-0.0112996
-0.00979083
-0.00837399
-0.00708836
-0.00594912
-0.00495668
-0.00410299
-0.00337575
-0.002761
-0.00224467
-0.00181341
-0.00145504
-0.00115868
-0.000914793
-0.000715077
-0.000552397
-0.00042064
-0.0003146
-0.000229859
-0.000162683
-0.000109926
-6.89489e-05
-3.75299e-05
-1.38466e-05
3.76875e-06
1.65583e-05
2.54731e-05
3.131e-05
3.4737e-05
3.63096e-05
3.64852e-05
3.56369e-05
3.40652e-05
3.20089e-05
2.96555e-05
2.71495e-05
2.46003e-05
2.20884e-05
1.96716e-05
1.73888e-05
1.52651e-05
1.3314e-05
1.15409e-05
9.94465e-06
8.51973e-06
7.25749e-06
6.14724e-06
5.17711e-06
4.33471e-06
3.60761e-06
2.98367e-06
2.45131e-06
1.99967e-06
1.61869e-06
1.29919e-06
1.03285e-06
8.12222e-07
6.30663e-07
4.8232e-07
3.62058e-07
2.65398e-07
1.88457e-07
1.27887e-07
8.08166e-08
4.47847e-08
1.77247e-08
-2.10401e-09
-1.61591e-08
-2.57541e-08
-3.19618e-08
-3.56507e-08
-3.75102e-08
-3.80785e-08
-3.77597e-08
-3.68807e-08
-3.55816e-08
-3.43051e-08
-3.19689e-08
-3.25615e-08
-1.97078e-08
-4.63483e-08
1.11165e-07
-2.61386e-07
1.88126e-06
-3.04794e-06
2.59181e-05
-3.68724e-05
0.000345124
-0.000398303
0.00439118
-0.00284663
0.0516343
0.0516343
0.00621567
-0.00621567
-0.0142999
-0.0183624
-0.0194157
-0.0185586
-0.0167091
-0.0144992
-0.0122985
-0.0102885
-0.00853603
-0.00704673
-0.00579863
-0.00476022
-0.00389924
-0.00318648
-0.00259682
-0.00210924
-0.00170635
-0.00137381
-0.00109977
-0.000874462
-0.000689738
-0.000538823
-0.000416051
-0.000316671
-0.000236692
-0.000172762
-0.000122063
-8.22288e-05
-5.12789e-05
-2.75335e-05
-9.64812e-06
3.77449e-06
1.35635e-05
2.03725e-05
2.47899e-05
2.73301e-05
2.84291e-05
2.84491e-05
2.76854e-05
2.63748e-05
2.47047e-05
2.28205e-05
2.08336e-05
1.88272e-05
1.68619e-05
1.49804e-05
1.32109e-05
1.15711e-05
1.00699e-05
8.70982e-06
7.48905e-06
6.4023e-06
5.44211e-06
4.5996e-06
3.86515e-06
3.22885e-06
2.68085e-06
2.21163e-06
1.81215e-06
1.47399e-06
1.18937e-06
9.51229e-07
7.53193e-07
5.89562e-07
4.55283e-07
3.45906e-07
2.57534e-07
1.86779e-07
1.30707e-07
8.67906e-08
5.28643e-08
2.70873e-08
7.87005e-09
-5.91425e-09
-1.55547e-08
-2.20351e-08
-2.61432e-08
-2.85094e-08
-2.96277e-08
-2.988e-08
-2.95462e-08
-2.88615e-08
-2.78864e-08
-2.70102e-08
-2.51185e-08
-2.57945e-08
-1.3942e-08
-3.31079e-08
1.11584e-07
-1.33705e-07
1.80635e-06
-1.26025e-06
2.50691e-05
-1.34269e-05
0.000347821
-0.000140682
0.00482118
-0.000857428
0.061277
0.061277
0.00751344
-0.00751344
-0.0146552
-0.0162812
-0.0149618
-0.0125487
-0.0100747
-0.0079588
-0.00628243
-0.00499021
-0.00399567
-0.00322205
-0.00261164
-0.00212353
-0.00172905
-0.00140773
-0.00114462
-0.000928456
-0.000750532
-0.000604009
-0.000483413
-0.000384307
-0.000303059
-0.000236667
-0.000182638
-0.000138887
-0.000103666
-7.55067e-05
-5.3174e-05
-3.56293e-05
-2.20027e-05
-1.15516e-05
-3.6849e-06
2.31907e-06
6.67036e-06
9.65309e-06
1.15464e-05
1.25945e-05
1.30017e-05
1.29346e-05
1.25274e-05
1.18865e-05
1.10952e-05
1.02175e-05
9.30221e-06
8.38521e-06
7.49248e-06
6.64199e-06
5.84549e-06
5.10994e-06
4.43863e-06
3.83216e-06
3.28917e-06
2.8069e-06
2.38172e-06
2.0094e-06
1.68546e-06
1.40533e-06
1.16451e-06
9.5868e-07
7.83749e-07
6.35929e-07
5.11741e-07
4.08027e-07
3.21949e-07
2.50974e-07
1.92862e-07
1.45644e-07
1.07599e-07
7.72298e-08
5.32449e-08
3.45311e-08
2.01357e-08
9.25086e-09
1.19638e-09
-4.46179e-09
-8.43438e-09
-1.11132e-08
-1.28181e-08
-1.38111e-08
-1.42973e-08
-1.44346e-08
-1.43362e-08
-1.41009e-08
-1.37338e-08
-1.34309e-08
-1.25157e-08
-1.28712e-08
-5.63828e-09
-1.24681e-08
8.03171e-08
4.13881e-09
1.25315e-06
4.72361e-07
1.73407e-05
1.024e-05
0.000240805
0.000168704
0.00349307
0.00153826
0.0477942
0.0477942
0
0
0
0
0
0
0
0
0
0
0
0
0
0
0
0
0
0
0
0
0
0
0
0
0
0
0
0
0
0
0
0
0
0
0
0
0
0
0
0
0
0
0
0
0
0
0
0
0
0
0
0
0
0
0
0
0
0
0
0
0
0
0
0
0
0
0
0
0
0
0
0
0
0
0
0
0
0
0
0
0
0
0
0
0
0
0
0
0
0
0
0
0
0
0
0
0
0
0
0
0
0
0
0
0
0
0
0
0
0
0
0
0
0
0
0
0
0
0
0
0
0
0
0
0
0
0
0
0
0
0
0
0
0
0
0
0
0
0
0
0
0
0
0
0
0
0
0
0
0
0
0
0
0
0
0
0
0
0
0
0
0
0
0
0
0
0
0
0
0
0
0
0
0
0
0
0
0
0
0
0
0
0
0
0
0
0
0
0
0
0
0
0
0
0
0
0
0
0
0
0
0
0
0
