# vtk DataFile Version 2.0
FlowField
ASCII
DATASET STRUCTURED_GRID
DIMENSIONS 102 1 12 
POINTS 1224 double
0 0 0
0.4 0 0
0.8 0 0
1.2 0 0
1.6 0 0
2 0 0
2.4 0 0
2.8 0 0
3.2 0 0
3.6 0 0
4 0 0
4.4 0 0
4.8 0 0
5.2 0 0
5.6 0 0
6 0 0
6.4 0 0
6.8 0 0
7.2 0 0
7.6 0 0
8 0 0
8.4 0 0
8.8 0 0
9.2 0 0
9.6 0 0
10 0 0
10.4 0 0
10.8 0 0
11.2 0 0
11.6 0 0
12 0 0
12.4 0 0
12.8 0 0
13.2 0 0
13.6 0 0
14 0 0
14.4 0 0
14.8 0 0
15.2 0 0
15.6 0 0
16 0 0
16.4 0 0
16.8 0 0
17.2 0 0
17.6 0 0
18 0 0
18.4 0 0
18.8 0 0
19.2 0 0
19.6 0 0
20 0 0
20.4 0 0
20.8 0 0
21.2 0 0
21.6 0 0
22 0 0
22.4 0 0
22.8 0 0
23.2 0 0
23.6 0 0
24 0 0
24.4 0 0
24.8 0 0
25.2 0 0
25.6 0 0
26 0 0
26.4 0 0
26.8 0 0
27.2 0 0
27.6 0 0
28 0 0
28.4 0 0
28.8 0 0
29.2 0 0
29.6 0 0
30 0 0
30.4 0 0
30.8 0 0
31.2 0 0
31.6 0 0
32 0 0
32.4 0 0
32.8 0 0
33.2 0 0
33.6 0 0
34 0 0
34.4 0 0
34.8 0 0
35.2 0 0
35.6 0 0
36 0 0
36.4 0 0
36.8 0 0
37.2 0 0
37.6 0 0
38 0 0
38.4 0 0
38.8 0 0
39.2 0 0
39.6 0 0
40 0 0
40.4 0 0
0 0.1 0
0.4 0.1 0
0.8 0.1 0
1.2 0.1 0
1.6 0.1 0
2 0.1 0
2.4 0.1 0
2.8 0.1 0
3.2 0.1 0
3.6 0.1 0
4 0.1 0
4.4 0.1 0
4.8 0.1 0
5.2 0.1 0
5.6 0.1 0
6 0.1 0
6.4 0.1 0
6.8 0.1 0
7.2 0.1 0
7.6 0.1 0
8 0.1 0
8.4 0.1 0
8.8 0.1 0
9.2 0.1 0
9.6 0.1 0
10 0.1 0
10.4 0.1 0
10.8 0.1 0
11.2 0.1 0
11.6 0.1 0
12 0.1 0
12.4 0.1 0
12.8 0.1 0
13.2 0.1 0
13.6 0.1 0
14 0.1 0
14.4 0.1 0
14.8 0.1 0
15.2 0.1 0
15.6 0.1 0
16 0.1 0
16.4 0.1 0
16.8 0.1 0
17.2 0.1 0
17.6 0.1 0
18 0.1 0
18.4 0.1 0
18.8 0.1 0
19.2 0.1 0
19.6 0.1 0
20 0.1 0
20.4 0.1 0
20.8 0.1 0
21.2 0.1 0
21.6 0.1 0
22 0.1 0
22.4 0.1 0
22.8 0.1 0
23.2 0.1 0
23.6 0.1 0
24 0.1 0
24.4 0.1 0
24.8 0.1 0
25.2 0.1 0
25.6 0.1 0
26 0.1 0
26.4 0.1 0
26.8 0.1 0
27.2 0.1 0
27.6 0.1 0
28 0.1 0
28.4 0.1 0
28.8 0.1 0
29.2 0.1 0
29.6 0.1 0
30 0.1 0
30.4 0.1 0
30.8 0.1 0
31.2 0.1 0
31.6 0.1 0
32 0.1 0
32.4 0.1 0
32.8 0.1 0
33.2 0.1 0
33.6 0.1 0
34 0.1 0
34.4 0.1 0
34.8 0.1 0
35.2 0.1 0
35.6 0.1 0
36 0.1 0
36.4 0.1 0
36.8 0.1 0
37.2 0.1 0
37.6 0.1 0
38 0.1 0
38.4 0.1 0
38.8 0.1 0
39.2 0.1 0
39.6 0.1 0
40 0.1 0
40.4 0.1 0
0 0.2 0
0.4 0.2 0
0.8 0.2 0
1.2 0.2 0
1.6 0.2 0
2 0.2 0
2.4 0.2 0
2.8 0.2 0
3.2 0.2 0
3.6 0.2 0
4 0.2 0
4.4 0.2 0
4.8 0.2 0
5.2 0.2 0
5.6 0.2 0
6 0.2 0
6.4 0.2 0
6.8 0.2 0
7.2 0.2 0
7.6 0.2 0
8 0.2 0
8.4 0.2 0
8.8 0.2 0
9.2 0.2 0
9.6 0.2 0
10 0.2 0
10.4 0.2 0
10.8 0.2 0
11.2 0.2 0
11.6 0.2 0
12 0.2 0
12.4 0.2 0
12.8 0.2 0
13.2 0.2 0
13.6 0.2 0
14 0.2 0
14.4 0.2 0
14.8 0.2 0
15.2 0.2 0
15.6 0.2 0
16 0.2 0
16.4 0.2 0
16.8 0.2 0
17.2 0.2 0
17.6 0.2 0
18 0.2 0
18.4 0.2 0
18.8 0.2 0
19.2 0.2 0
19.6 0.2 0
20 0.2 0
20.4 0.2 0
20.8 0.2 0
21.2 0.2 0
21.6 0.2 0
22 0.2 0
22.4 0.2 0
22.8 0.2 0
23.2 0.2 0
23.6 0.2 0
24 0.2 0
24.4 0.2 0
24.8 0.2 0
25.2 0.2 0
25.6 0.2 0
26 0.2 0
26.4 0.2 0
26.8 0.2 0
27.2 0.2 0
27.6 0.2 0
28 0.2 0
28.4 0.2 0
28.8 0.2 0
29.2 0.2 0
29.6 0.2 0
30 0.2 0
30.4 0.2 0
30.8 0.2 0
31.2 0.2 0
31.6 0.2 0
32 0.2 0
32.4 0.2 0
32.8 0.2 0
33.2 0.2 0
33.6 0.2 0
34 0.2 0
34.4 0.2 0
34.8 0.2 0
35.2 0.2 0
35.6 0.2 0
36 0.2 0
36.4 0.2 0
36.8 0.2 0
37.2 0.2 0
37.6 0.2 0
38 0.2 0
38.4 0.2 0
38.8 0.2 0
39.2 0.2 0
39.6 0.2 0
40 0.2 0
40.4 0.2 0
0 0.3 0
0.4 0.3 0
0.8 0.3 0
1.2 0.3 0
1.6 0.3 0
2 0.3 0
2.4 0.3 0
2.8 0.3 0
3.2 0.3 0
3.6 0.3 0
4 0.3 0
4.4 0.3 0
4.8 0.3 0
5.2 0.3 0
5.6 0.3 0
6 0.3 0
6.4 0.3 0
6.8 0.3 0
7.2 0.3 0
7.6 0.3 0
8 0.3 0
8.4 0.3 0
8.8 0.3 0
9.2 0.3 0
9.6 0.3 0
10 0.3 0
10.4 0.3 0
10.8 0.3 0
11.2 0.3 0
11.6 0.3 0
12 0.3 0
12.4 0.3 0
12.8 0.3 0
13.2 0.3 0
13.6 0.3 0
14 0.3 0
14.4 0.3 0
14.8 0.3 0
15.2 0.3 0
15.6 0.3 0
16 0.3 0
16.4 0.3 0
16.8 0.3 0
17.2 0.3 0
17.6 0.3 0
18 0.3 0
18.4 0.3 0
18.8 0.3 0
19.2 0.3 0
19.6 0.3 0
20 0.3 0
20.4 0.3 0
20.8 0.3 0
21.2 0.3 0
21.6 0.3 0
22 0.3 0
22.4 0.3 0
22.8 0.3 0
23.2 0.3 0
23.6 0.3 0
24 0.3 0
24.4 0.3 0
24.8 0.3 0
25.2 0.3 0
25.6 0.3 0
26 0.3 0
26.4 0.3 0
26.8 0.3 0
27.2 0.3 0
27.6 0.3 0
28 0.3 0
28.4 0.3 0
28.8 0.3 0
29.2 0.3 0
29.6 0.3 0
30 0.3 0
30.4 0.3 0
30.8 0.3 0
31.2 0.3 0
31.6 0.3 0
32 0.3 0
32.4 0.3 0
32.8 0.3 0
33.2 0.3 0
33.6 0.3 0
34 0.3 0
34.4 0.3 0
34.8 0.3 0
35.2 0.3 0
35.6 0.3 0
36 0.3 0
36.4 0.3 0
36.8 0.3 0
37.2 0.3 0
37.6 0.3 0
38 0.3 0
38.4 0.3 0
38.8 0.3 0
39.2 0.3 0
39.6 0.3 0
40 0.3 0
40.4 0.3 0
0 0.4 0
0.4 0.4 0
0.8 0.4 0
1.2 0.4 0
1.6 0.4 0
2 0.4 0
2.4 0.4 0
2.8 0.4 0
3.2 0.4 0
3.6 0.4 0
4 0.4 0
4.4 0.4 0
4.8 0.4 0
5.2 0.4 0
5.6 0.4 0
6 0.4 0
6.4 0.4 0
6.8 0.4 0
7.2 0.4 0
7.6 0.4 0
8 0.4 0
8.4 0.4 0
8.8 0.4 0
9.2 0.4 0
9.6 0.4 0
10 0.4 0
10.4 0.4 0
10.8 0.4 0
11.2 0.4 0
11.6 0.4 0
12 0.4 0
12.4 0.4 0
12.8 0.4 0
13.2 0.4 0
13.6 0.4 0
14 0.4 0
14.4 0.4 0
14.8 0.4 0
15.2 0.4 0
15.6 0.4 0
16 0.4 0
16.4 0.4 0
16.8 0.4 0
17.2 0.4 0
17.6 0.4 0
18 0.4 0
18.4 0.4 0
18.8 0.4 0
19.2 0.4 0
19.6 0.4 0
20 0.4 0
20.4 0.4 0
20.8 0.4 0
21.2 0.4 0
21.6 0.4 0
22 0.4 0
22.4 0.4 0
22.8 0.4 0
23.2 0.4 0
23.6 0.4 0
24 0.4 0
24.4 0.4 0
24.8 0.4 0
25.2 0.4 0
25.6 0.4 0
26 0.4 0
26.4 0.4 0
26.8 0.4 0
27.2 0.4 0
27.6 0.4 0
28 0.4 0
28.4 0.4 0
28.8 0.4 0
29.2 0.4 0
29.6 0.4 0
30 0.4 0
30.4 0.4 0
30.8 0.4 0
31.2 0.4 0
31.6 0.4 0
32 0.4 0
32.4 0.4 0
32.8 0.4 0
33.2 0.4 0
33.6 0.4 0
34 0.4 0
34.4 0.4 0
34.8 0.4 0
35.2 0.4 0
35.6 0.4 0
36 0.4 0
36.4 0.4 0
36.8 0.4 0
37.2 0.4 0
37.6 0.4 0
38 0.4 0
38.4 0.4 0
38.8 0.4 0
39.2 0.4 0
39.6 0.4 0
40 0.4 0
40.4 0.4 0
0 0.5 0
0.4 0.5 0
0.8 0.5 0
1.2 0.5 0
1.6 0.5 0
2 0.5 0
2.4 0.5 0
2.8 0.5 0
3.2 0.5 0
3.6 0.5 0
4 0.5 0
4.4 0.5 0
4.8 0.5 0
5.2 0.5 0
5.6 0.5 0
6 0.5 0
6.4 0.5 0
6.8 0.5 0
7.2 0.5 0
7.6 0.5 0
8 0.5 0
8.4 0.5 0
8.8 0.5 0
9.2 0.5 0
9.6 0.5 0
10 0.5 0
10.4 0.5 0
10.8 0.5 0
11.2 0.5 0
11.6 0.5 0
12 0.5 0
12.4 0.5 0
12.8 0.5 0
13.2 0.5 0
13.6 0.5 0
14 0.5 0
14.4 0.5 0
14.8 0.5 0
15.2 0.5 0
15.6 0.5 0
16 0.5 0
16.4 0.5 0
16.8 0.5 0
17.2 0.5 0
17.6 0.5 0
18 0.5 0
18.4 0.5 0
18.8 0.5 0
19.2 0.5 0
19.6 0.5 0
20 0.5 0
20.4 0.5 0
20.8 0.5 0
21.2 0.5 0
21.6 0.5 0
22 0.5 0
22.4 0.5 0
22.8 0.5 0
23.2 0.5 0
23.6 0.5 0
24 0.5 0
24.4 0.5 0
24.8 0.5 0
25.2 0.5 0
25.6 0.5 0
26 0.5 0
26.4 0.5 0
26.8 0.5 0
27.2 0.5 0
27.6 0.5 0
28 0.5 0
28.4 0.5 0
28.8 0.5 0
29.2 0.5 0
29.6 0.5 0
30 0.5 0
30.4 0.5 0
30.8 0.5 0
31.2 0.5 0
31.6 0.5 0
32 0.5 0
32.4 0.5 0
32.8 0.5 0
33.2 0.5 0
33.6 0.5 0
34 0.5 0
34.4 0.5 0
34.8 0.5 0
35.2 0.5 0
35.6 0.5 0
36 0.5 0
36.4 0.5 0
36.8 0.5 0
37.2 0.5 0
37.6 0.5 0
38 0.5 0
38.4 0.5 0
38.8 0.5 0
39.2 0.5 0
39.6 0.5 0
40 0.5 0
40.4 0.5 0
0 0.6 0
0.4 0.6 0
0.8 0.6 0
1.2 0.6 0
1.6 0.6 0
2 0.6 0
2.4 0.6 0
2.8 0.6 0
3.2 0.6 0
3.6 0.6 0
4 0.6 0
4.4 0.6 0
4.8 0.6 0
5.2 0.6 0
5.6 0.6 0
6 0.6 0
6.4 0.6 0
6.8 0.6 0
7.2 0.6 0
7.6 0.6 0
8 0.6 0
8.4 0.6 0
8.8 0.6 0
9.2 0.6 0
9.6 0.6 0
10 0.6 0
10.4 0.6 0
10.8 0.6 0
11.2 0.6 0
11.6 0.6 0
12 0.6 0
12.4 0.6 0
12.8 0.6 0
13.2 0.6 0
13.6 0.6 0
14 0.6 0
14.4 0.6 0
14.8 0.6 0
15.2 0.6 0
15.6 0.6 0
16 0.6 0
16.4 0.6 0
16.8 0.6 0
17.2 0.6 0
17.6 0.6 0
18 0.6 0
18.4 0.6 0
18.8 0.6 0
19.2 0.6 0
19.6 0.6 0
20 0.6 0
20.4 0.6 0
20.8 0.6 0
21.2 0.6 0
21.6 0.6 0
22 0.6 0
22.4 0.6 0
22.8 0.6 0
23.2 0.6 0
23.6 0.6 0
24 0.6 0
24.4 0.6 0
24.8 0.6 0
25.2 0.6 0
25.6 0.6 0
26 0.6 0
26.4 0.6 0
26.8 0.6 0
27.2 0.6 0
27.6 0.6 0
28 0.6 0
28.4 0.6 0
28.8 0.6 0
29.2 0.6 0
29.6 0.6 0
30 0.6 0
30.4 0.6 0
30.8 0.6 0
31.2 0.6 0
31.6 0.6 0
32 0.6 0
32.4 0.6 0
32.8 0.6 0
33.2 0.6 0
33.6 0.6 0
34 0.6 0
34.4 0.6 0
34.8 0.6 0
35.2 0.6 0
35.6 0.6 0
36 0.6 0
36.4 0.6 0
36.8 0.6 0
37.2 0.6 0
37.6 0.6 0
38 0.6 0
38.4 0.6 0
38.8 0.6 0
39.2 0.6 0
39.6 0.6 0
40 0.6 0
40.4 0.6 0
0 0.7 0
0.4 0.7 0
0.8 0.7 0
1.2 0.7 0
1.6 0.7 0
2 0.7 0
2.4 0.7 0
2.8 0.7 0
3.2 0.7 0
3.6 0.7 0
4 0.7 0
4.4 0.7 0
4.8 0.7 0
5.2 0.7 0
5.6 0.7 0
6 0.7 0
6.4 0.7 0
6.8 0.7 0
7.2 0.7 0
7.6 0.7 0
8 0.7 0
8.4 0.7 0
8.8 0.7 0
9.2 0.7 0
9.6 0.7 0
10 0.7 0
10.4 0.7 0
10.8 0.7 0
11.2 0.7 0
11.6 0.7 0
12 0.7 0
12.4 0.7 0
12.8 0.7 0
13.2 0.7 0
13.6 0.7 0
14 0.7 0
14.4 0.7 0
14.8 0.7 0
15.2 0.7 0
15.6 0.7 0
16 0.7 0
16.4 0.7 0
16.8 0.7 0
17.2 0.7 0
17.6 0.7 0
18 0.7 0
18.4 0.7 0
18.8 0.7 0
19.2 0.7 0
19.6 0.7 0
20 0.7 0
20.4 0.7 0
20.8 0.7 0
21.2 0.7 0
21.6 0.7 0
22 0.7 0
22.4 0.7 0
22.8 0.7 0
23.2 0.7 0
23.6 0.7 0
24 0.7 0
24.4 0.7 0
24.8 0.7 0
25.2 0.7 0
25.6 0.7 0
26 0.7 0
26.4 0.7 0
26.8 0.7 0
27.2 0.7 0
27.6 0.7 0
28 0.7 0
28.4 0.7 0
28.8 0.7 0
29.2 0.7 0
29.6 0.7 0
30 0.7 0
30.4 0.7 0
30.8 0.7 0
31.2 0.7 0
31.6 0.7 0
32 0.7 0
32.4 0.7 0
32.8 0.7 0
33.2 0.7 0
33.6 0.7 0
34 0.7 0
34.4 0.7 0
34.8 0.7 0
35.2 0.7 0
35.6 0.7 0
36 0.7 0
36.4 0.7 0
36.8 0.7 0
37.2 0.7 0
37.6 0.7 0
38 0.7 0
38.4 0.7 0
38.8 0.7 0
39.2 0.7 0
39.6 0.7 0
40 0.7 0
40.4 0.7 0
0 0.8 0
0.4 0.8 0
0.8 0.8 0
1.2 0.8 0
1.6 0.8 0
2 0.8 0
2.4 0.8 0
2.8 0.8 0
3.2 0.8 0
3.6 0.8 0
4 0.8 0
4.4 0.8 0
4.8 0.8 0
5.2 0.8 0
5.6 0.8 0
6 0.8 0
6.4 0.8 0
6.8 0.8 0
7.2 0.8 0
7.6 0.8 0
8 0.8 0
8.4 0.8 0
8.8 0.8 0
9.2 0.8 0
9.6 0.8 0
10 0.8 0
10.4 0.8 0
10.8 0.8 0
11.2 0.8 0
11.6 0.8 0
12 0.8 0
12.4 0.8 0
12.8 0.8 0
13.2 0.8 0
13.6 0.8 0
14 0.8 0
14.4 0.8 0
14.8 0.8 0
15.2 0.8 0
15.6 0.8 0
16 0.8 0
16.4 0.8 0
16.8 0.8 0
17.2 0.8 0
17.6 0.8 0
18 0.8 0
18.4 0.8 0
18.8 0.8 0
19.2 0.8 0
19.6 0.8 0
20 0.8 0
20.4 0.8 0
20.8 0.8 0
21.2 0.8 0
21.6 0.8 0
22 0.8 0
22.4 0.8 0
22.8 0.8 0
23.2 0.8 0
23.6 0.8 0
24 0.8 0
24.4 0.8 0
24.8 0.8 0
25.2 0.8 0
25.6 0.8 0
26 0.8 0
26.4 0.8 0
26.8 0.8 0
27.2 0.8 0
27.6 0.8 0
28 0.8 0
28.4 0.8 0
28.8 0.8 0
29.2 0.8 0
29.6 0.8 0
30 0.8 0
30.4 0.8 0
30.8 0.8 0
31.2 0.8 0
31.6 0.8 0
32 0.8 0
32.4 0.8 0
32.8 0.8 0
33.2 0.8 0
33.6 0.8 0
34 0.8 0
34.4 0.8 0
34.8 0.8 0
35.2 0.8 0
35.6 0.8 0
36 0.8 0
36.4 0.8 0
36.8 0.8 0
37.2 0.8 0
37.6 0.8 0
38 0.8 0
38.4 0.8 0
38.8 0.8 0
39.2 0.8 0
39.6 0.8 0
40 0.8 0
40.4 0.8 0
0 0.9 0
0.4 0.9 0
0.8 0.9 0
1.2 0.9 0
1.6 0.9 0
2 0.9 0
2.4 0.9 0
2.8 0.9 0
3.2 0.9 0
3.6 0.9 0
4 0.9 0
4.4 0.9 0
4.8 0.9 0
5.2 0.9 0
5.6 0.9 0
6 0.9 0
6.4 0.9 0
6.8 0.9 0
7.2 0.9 0
7.6 0.9 0
8 0.9 0
8.4 0.9 0
8.8 0.9 0
9.2 0.9 0
9.6 0.9 0
10 0.9 0
10.4 0.9 0
10.8 0.9 0
11.2 0.9 0
11.6 0.9 0
12 0.9 0
12.4 0.9 0
12.8 0.9 0
13.2 0.9 0
13.6 0.9 0
14 0.9 0
14.4 0.9 0
14.8 0.9 0
15.2 0.9 0
15.6 0.9 0
16 0.9 0
16.4 0.9 0
16.8 0.9 0
17.2 0.9 0
17.6 0.9 0
18 0.9 0
18.4 0.9 0
18.8 0.9 0
19.2 0.9 0
19.6 0.9 0
20 0.9 0
20.4 0.9 0
20.8 0.9 0
21.2 0.9 0
21.6 0.9 0
22 0.9 0
22.4 0.9 0
22.8 0.9 0
23.2 0.9 0
23.6 0.9 0
24 0.9 0
24.4 0.9 0
24.8 0.9 0
25.2 0.9 0
25.6 0.9 0
26 0.9 0
26.4 0.9 0
26.8 0.9 0
27.2 0.9 0
27.6 0.9 0
28 0.9 0
28.4 0.9 0
28.8 0.9 0
29.2 0.9 0
29.6 0.9 0
30 0.9 0
30.4 0.9 0
30.8 0.9 0
31.2 0.9 0
31.6 0.9 0
32 0.9 0
32.4 0.9 0
32.8 0.9 0
33.2 0.9 0
33.6 0.9 0
34 0.9 0
34.4 0.9 0
34.8 0.9 0
35.2 0.9 0
35.6 0.9 0
36 0.9 0
36.4 0.9 0
36.8 0.9 0
37.2 0.9 0
37.6 0.9 0
38 0.9 0
38.4 0.9 0
38.8 0.9 0
39.2 0.9 0
39.6 0.9 0
40 0.9 0
40.4 0.9 0
0 1 0
0.4 1 0
0.8 1 0
1.2 1 0
1.6 1 0
2 1 0
2.4 1 0
2.8 1 0
3.2 1 0
3.6 1 0
4 1 0
4.4 1 0
4.8 1 0
5.2 1 0
5.6 1 0
6 1 0
6.4 1 0
6.8 1 0
7.2 1 0
7.6 1 0
8 1 0
8.4 1 0
8.8 1 0
9.2 1 0
9.6 1 0
10 1 0
10.4 1 0
10.8 1 0
11.2 1 0
11.6 1 0
12 1 0
12.4 1 0
12.8 1 0
13.2 1 0
13.6 1 0
14 1 0
14.4 1 0
14.8 1 0
15.2 1 0
15.6 1 0
16 1 0
16.4 1 0
16.8 1 0
17.2 1 0
17.6 1 0
18 1 0
18.4 1 0
18.8 1 0
19.2 1 0
19.6 1 0
20 1 0
20.4 1 0
20.8 1 0
21.2 1 0
21.6 1 0
22 1 0
22.4 1 0
22.8 1 0
23.2 1 0
23.6 1 0
24 1 0
24.4 1 0
24.8 1 0
25.2 1 0
25.6 1 0
26 1 0
26.4 1 0
26.8 1 0
27.2 1 0
27.6 1 0
28 1 0
28.4 1 0
28.8 1 0
29.2 1 0
29.6 1 0
30 1 0
30.4 1 0
30.8 1 0
31.2 1 0
31.6 1 0
32 1 0
32.4 1 0
32.8 1 0
33.2 1 0
33.6 1 0
34 1 0
34.4 1 0
34.8 1 0
35.2 1 0
35.6 1 0
36 1 0
36.4 1 0
36.8 1 0
37.2 1 0
37.6 1 0
38 1 0
38.4 1 0
38.8 1 0
39.2 1 0
39.6 1 0
40 1 0
40.4 1 0
0 1.1 0
0.4 1.1 0
0.8 1.1 0
1.2 1.1 0
1.6 1.1 0
2 1.1 0
2.4 1.1 0
2.8 1.1 0
3.2 1.1 0
3.6 1.1 0
4 1.1 0
4.4 1.1 0
4.8 1.1 0
5.2 1.1 0
5.6 1.1 0
6 1.1 0
6.4 1.1 0
6.8 1.1 0
7.2 1.1 0
7.6 1.1 0
8 1.1 0
8.4 1.1 0
8.8 1.1 0
9.2 1.1 0
9.6 1.1 0
10 1.1 0
10.4 1.1 0
10.8 1.1 0
11.2 1.1 0
11.6 1.1 0
12 1.1 0
12.4 1.1 0
12.8 1.1 0
13.2 1.1 0
13.6 1.1 0
14 1.1 0
14.4 1.1 0
14.8 1.1 0
15.2 1.1 0
15.6 1.1 0
16 1.1 0
16.4 1.1 0
16.8 1.1 0
17.2 1.1 0
17.6 1.1 0
18 1.1 0
18.4 1.1 0
18.8 1.1 0
19.2 1.1 0
19.6 1.1 0
20 1.1 0
20.4 1.1 0
20.8 1.1 0
21.2 1.1 0
21.6 1.1 0
22 1.1 0
22.4 1.1 0
22.8 1.1 0
23.2 1.1 0
23.6 1.1 0
24 1.1 0
24.4 1.1 0
24.8 1.1 0
25.2 1.1 0
25.6 1.1 0
26 1.1 0
26.4 1.1 0
26.8 1.1 0
27.2 1.1 0
27.6 1.1 0
28 1.1 0
28.4 1.1 0
28.8 1.1 0
29.2 1.1 0
29.6 1.1 0
30 1.1 0
30.4 1.1 0
30.8 1.1 0
31.2 1.1 0
31.6 1.1 0
32 1.1 0
32.4 1.1 0
32.8 1.1 0
33.2 1.1 0
33.6 1.1 0
34 1.1 0
34.4 1.1 0
34.8 1.1 0
35.2 1.1 0
35.6 1.1 0
36 1.1 0
36.4 1.1 0
36.8 1.1 0
37.2 1.1 0
37.6 1.1 0
38 1.1 0
38.4 1.1 0
38.8 1.1 0
39.2 1.1 0
39.6 1.1 0
40 1.1 0
40.4 1.1 0

POINT_DATA 1224

SCALARS v double
LOOKUP_TABLE default
0
0
0
0
0
0
0
0
0
0
0
0
0
0
0
0
0
0
0
0
0
0
0
0
0
0
0
0
0
0
0
0
0
0
0
0
0
0
0
0
0
0
0
0
0
0
0
0
0
0
0
0
0
0
0
0
0
0
0
0
0
0
0
0
0
0
0
0
0
0
0
0
0
0
0
0
0
0
0
0
0
0
0
0
0
0
0
0
0
0
0
0
0
0
0
0
0
0
0
0
0
0
-0.00751344
0.00751344
0.0146552
0.0162812
0.0149618
0.0125487
0.0100747
0.00795881
0.00628244
0.00499022
0.00399568
0.00322207
0.00261165
0.00212354
0.00172906
0.00140774
0.00114464
0.000928469
0.000750545
0.000604022
0.000483426
0.000384321
0.000303072
0.000236681
0.000182652
0.000138901
0.00010368
7.55208e-05
5.31883e-05
3.56437e-05
2.20171e-05
1.15645e-05
3.69618e-06
-2.31763e-06
-6.68994e-06
-9.70826e-06
-1.16564e-05
-1.27839e-05
-1.32991e-05
-1.33707e-05
-1.31315e-05
-1.26827e-05
-1.2098e-05
-1.14287e-05
-1.07076e-05
-9.95442e-06
-9.17954e-06
-8.38855e-06
-7.58551e-06
-6.77539e-06
-5.96554e-06
-5.16607e-06
-4.38944e-06
-3.64933e-06
-2.95924e-06
-2.33115e-06
-1.77426e-06
-1.29426e-06
-8.93044e-07
-5.68919e-07
-3.17374e-07
-1.32584e-07
-5.42321e-09
7.90256e-08
1.2996e-07
1.55347e-07
1.62298e-07
1.567e-07
1.43237e-07
1.25499e-07
1.06105e-07
8.68559e-08
6.88934e-08
5.28503e-08
3.89897e-08
2.73212e-08
1.76919e-08
9.84698e-09
3.45123e-09
-1.69128e-09
-5.68175e-09
-8.81301e-09
-1.13028e-08
-1.32831e-08
-1.49224e-08
-1.61931e-08
-1.78159e-08
-1.81734e-08
-2.58852e-08
-1.96012e-08
-1.12855e-07
-3.67237e-08
-1.28507e-06
-5.0567e-07
-1.7367e-05
-1.02734e-05
-0.000240791
-0.000168661
-0.00349276
-0.00153692
-0.0477907
-0.0477907
-0.00621568
0.00621568
0.0142999
0.0183624
0.0194157
0.0185586
0.0167091
0.0144992
0.0122985
0.0102886
0.00853605
0.00704674
0.00579865
0.00476023
0.00389926
0.0031865
0.00259684
0.00210926
0.00170637
0.00137383
0.00109979
0.000874483
0.000689759
0.000538844
0.000416072
0.000316692
0.000236713
0.000172783
0.000122085
8.22509e-05
5.13014e-05
2.75551e-05
9.66812e-06
-3.76255e-06
-1.35729e-05
-2.04238e-05
-2.49135e-05
-2.7567e-05
-2.88314e-05
-2.90775e-05
-2.86042e-05
-2.76449e-05
-2.63751e-05
-2.49198e-05
-2.33621e-05
-2.17515e-05
-2.01139e-05
-1.84598e-05
-1.67926e-05
-1.5115e-05
-1.34341e-05
-1.17631e-05
-1.01223e-05
-8.53686e-06
-7.03483e-06
-5.64354e-06
-4.38669e-06
-3.28186e-06
-2.33898e-06
-1.56004e-06
-9.39768e-07
-4.66774e-07
-1.26988e-07
1.01857e-07
2.45618e-07
3.24787e-07
3.56581e-07
3.55268e-07
3.32379e-07
2.96905e-07
2.55553e-07
2.13062e-07
1.72545e-07
1.35838e-07
1.03829e-07
7.67404e-08
5.43513e-08
3.61684e-08
2.16473e-08
1.023e-08
1.19268e-09
-5.89659e-09
-1.13849e-08
-1.55975e-08
-1.89163e-08
-2.135e-08
-2.41722e-08
-2.42874e-08
-3.63219e-08
-1.7792e-08
-1.62355e-07
8.27261e-08
-1.85549e-06
1.20806e-06
-2.51072e-05
1.33638e-05
-0.00034778
0.000140581
-0.00482048
0.00085773
-0.0612699
-0.0612698
-0.00401801
0.00401801
0.00987185
0.0135457
0.0153924
0.0158461
0.015338
0.0142366
0.0128244
0.0112996
0.00979085
0.00837401
0.00708837
0.00594914
0.0049567
0.00410301
0.00337577
0.00276102
0.00224469
0.00181344
0.00145507
0.00115871
0.000914818
0.000715102
0.000552422
0.000420665
0.000314625
0.000229884
0.000162709
0.000109952
6.89759e-05
3.7557e-05
1.38732e-05
-3.74598e-06
-1.65477e-05
-2.54899e-05
-3.1379e-05
-3.48952e-05
-3.66078e-05
-3.69879e-05
-3.64183e-05
-3.52035e-05
-3.35774e-05
-3.17117e-05
-2.97246e-05
-2.76896e-05
-2.56457e-05
-2.36078e-05
-2.15766e-05
-1.9548e-05
-1.752e-05
-1.54982e-05
-1.34973e-05
-1.15411e-05
-9.6603e-06
-7.88824e-06
-6.25732e-06
-4.79488e-06
-3.52038e-06
-2.4437e-06
-1.56517e-06
-8.76134e-07
-3.60365e-07
1.62931e-09
2.38111e-07
3.77584e-07
4.4468e-07
4.60173e-07
4.41073e-07
4.00813e-07
3.49557e-07
2.94616e-07
2.40918e-07
1.91493e-07
1.47937e-07
1.10817e-07
8.00084e-08
5.49727e-08
3.50091e-08
1.93423e-08
7.12839e-09
-2.42333e-09
-9.8151e-09
-1.547e-08
-1.98574e-08
-2.30596e-08
-2.64445e-08
-2.65566e-08
-3.9323e-08
-1.32552e-08
-1.69503e-07
2.02113e-07
-1.93663e-06
2.9856e-06
-2.59556e-05
3.67742e-05
-0.000345023
0.000397919
-0.00439002
0.00284469
-0.0516261
-0.051626
-0.00195406
0.00195406
0.00490746
0.00691944
0.00813033
0.00869009
0.00874624
0.00843554
0.00787797
0.00717311
0.0063989
0.00561272
0.00485392
0.00414728
0.00350643
0.00293696
0.00243904
0.00200933
0.00164251
0.00133227
0.00107202
0.000855303
0.000676063
0.000528794
0.000408579
0.000311101
0.000232613
0.000169896
0.000120201
8.12016e-05
5.09361e-05
2.77596e-05
1.02968e-05
-2.62843e-06
-1.19616e-05
-1.8453e-05
-2.27166e-05
-2.52573e-05
-2.64905e-05
-2.67564e-05
-2.6331e-05
-2.54346e-05
-2.42384e-05
-2.28704e-05
-2.14203e-05
-1.9946e-05
-1.84792e-05
-1.7032e-05
-1.56045e-05
-1.41906e-05
-1.27843e-05
-1.13836e-05
-9.99304e-06
-8.62449e-06
-7.29604e-06
-6.02982e-06
-4.84907e-06
-3.77518e-06
-2.82518e-06
-2.00993e-06
-1.33346e-06
-7.93205e-07
-3.79959e-07
-8.09555e-08
1.20406e-07
2.43801e-07
3.07801e-07
3.28753e-07
3.20363e-07
2.93616e-07
2.56919e-07
2.16371e-07
1.76122e-07
1.38758e-07
1.05671e-07
7.73994e-08
5.39001e-08
3.47867e-08
1.95359e-08
7.5333e-09
-1.87781e-09
-9.2123e-09
-1.49204e-08
-1.93508e-08
-2.28638e-08
-2.5481e-08
-2.82911e-08
-2.83475e-08
-3.82554e-08
-1.55884e-08
-1.31655e-07
1.8582e-07
-1.3604e-06
2.72451e-06
-1.74036e-05
3.22091e-05
-0.000218818
0.000329866
-0.00260455
0.00238514
-0.0289971
-0.028997
-1.79908e-09
1.7958e-09
5.11068e-09
8.13202e-09
1.08954e-08
1.34096e-08
1.56626e-08
1.76357e-08
1.93159e-08
2.07011e-08
2.18021e-08
2.26394e-08
2.32401e-08
2.36348e-08
2.38546e-08
2.39299e-08
2.38894e-08
2.37597e-08
2.35654e-08
2.33291e-08
2.30717e-08
2.28129e-08
2.25711e-08
2.23642e-08
2.22102e-08
2.21273e-08
2.21346e-08
2.22509e-08
2.24979e-08
2.28858e-08
2.34537e-08
2.41446e-08
2.51323e-08
2.60262e-08
2.69466e-08
2.78113e-08
2.85285e-08
2.89955e-08
2.90919e-08
2.86709e-08
2.75599e-08
2.55731e-08
2.25329e-08
1.83015e-08
1.28206e-08
6.15632e-09
-1.46057e-09
-9.61091e-09
-1.76953e-08
-2.49823e-08
-3.06964e-08
-3.41349e-08
-3.47922e-08
-3.24657e-08
-2.73172e-08
-1.98746e-08
-1.09687e-08
-1.61562e-09
7.13101e-09
1.43306e-08
1.92882e-08
2.16088e-08
2.12921e-08
1.86229e-08
1.40218e-08
8.1519e-09
1.68968e-09
-4.75479e-09
-1.06916e-08
-1.5782e-08
-1.98457e-08
-2.28466e-08
-2.4864e-08
-2.6056e-08
-2.66215e-08
-2.67695e-08
-2.66971e-08
-2.65595e-08
-2.64574e-08
-2.64724e-08
-2.66387e-08
-2.69542e-08
-2.74175e-08
-2.80065e-08
-2.87043e-08
-2.94635e-08
-3.03218e-08
-3.11192e-08
-3.21113e-08
-3.27478e-08
-3.36444e-08
-3.40858e-08
-3.46887e-08
-3.4748e-08
-3.47017e-08
-3.39683e-08
-3.19777e-08
-3.02161e-08
-2.13899e-08
-2.20228e-08
2.75224e-08
2.75132e-08
0.00195405
-0.00195405
-0.00490745
-0.00691942
-0.00813031
-0.00869007
-0.00874621
-0.00843551
-0.00787794
-0.00717307
-0.00639886
-0.00561267
-0.00485388
-0.00414724
-0.00350638
-0.00293692
-0.00243899
-0.00200928
-0.00164246
-0.00133223
-0.00107198
-0.000855259
-0.00067602
-0.000528751
-0.000408536
-0.000311058
-0.00023257
-0.000169853
-0.000120157
-8.11574e-05
-5.08909e-05
-2.7713e-05
-1.02483e-05
2.67876e-06
1.20137e-05
1.85068e-05
2.27716e-05
2.5313e-05
2.65462e-05
2.68109e-05
2.63831e-05
2.54826e-05
2.42803e-05
2.29039e-05
2.14433e-05
1.99564e-05
1.84754e-05
1.70134e-05
1.55714e-05
1.41449e-05
1.27291e-05
1.13232e-05
9.93261e-06
8.56941e-06
7.25124e-06
5.99911e-06
4.83467e-06
3.77745e-06
2.8426e-06
2.03935e-06
1.37059e-06
8.33214e-07
4.18145e-07
1.13054e-07
-9.74848e-08
-2.3199e-07
-3.07894e-07
-3.40522e-07
-3.42762e-07
-3.25048e-07
-2.95508e-07
-2.60217e-07
-2.23494e-07
-1.88225e-07
-1.56168e-07
-1.28234e-07
-1.04725e-07
-8.55324e-08
-7.02908e-08
-5.85105e-08
-4.96364e-08
-4.31303e-08
-3.85118e-08
-3.53795e-08
-3.33278e-08
-3.22801e-08
-3.11495e-08
-3.27843e-08
-2.46239e-08
-4.89672e-08
6.58184e-08
-2.52986e-07
1.29251e-06
-2.79299e-06
1.73356e-05
-3.2276e-05
0.000218755
-0.000329925
0.00260451
-0.00238518
0.0289971
0.0289971
0.00401801
-0.00401801
-0.00987184
-0.0135457
-0.0153924
-0.0158461
-0.0153379
-0.0142366
-0.0128243
-0.0112996
-0.00979081
-0.00837397
-0.00708834
-0.0059491
-0.00495666
-0.00410297
-0.00337573
-0.00276098
-0.00224465
-0.0018134
-0.00145503
-0.00115867
-0.00091478
-0.000715064
-0.000552384
-0.000420627
-0.000314587
-0.000229846
-0.00016267
-0.000109912
-6.89352e-05
-3.75151e-05
-1.383e-05
3.79114e-06
1.65945e-05
2.5538e-05
3.14278e-05
3.49442e-05
3.66563e-05
3.70348e-05
3.64626e-05
3.52436e-05
3.36118e-05
3.17389e-05
2.97429e-05
2.76977e-05
2.5643e-05
2.35942e-05
2.15531e-05
1.95164e-05
1.74833e-05
1.54598e-05
1.34611e-05
1.15109e-05
9.63895e-06
7.87786e-06
6.25863e-06
4.80725e-06
3.5419e-06
2.47149e-06
1.59578e-06
9.06071e-07
3.86297e-07
1.76681e-08
-2.26997e-07
-3.75501e-07
-4.51752e-07
-4.75885e-07
-4.64427e-07
-4.30519e-07
-3.84223e-07
-3.32907e-07
-2.81673e-07
-2.33796e-07
-1.91142e-07
-1.54542e-07
-1.24108e-07
-9.94838e-08
-8.00539e-08
-6.50804e-08
-5.37959e-08
-4.54871e-08
-3.95248e-08
-3.53987e-08
-3.25889e-08
-3.10236e-08
-2.92556e-08
-3.09347e-08
-1.96277e-08
-4.78132e-08
1.07677e-07
-2.6574e-07
1.87272e-06
-3.05061e-06
2.58914e-05
-3.68377e-05
0.000344963
-0.000397974
0.00438997
-0.00284472
0.0516261
0.0516261
0.00621567
-0.00621567
-0.0142999
-0.0183624
-0.0194157
-0.0185586
-0.016709
-0.0144991
-0.0122985
-0.0102885
-0.00853602
-0.00704671
-0.00579862
-0.0047602
-0.00389923
-0.00318647
-0.00259681
-0.00210923
-0.00170634
-0.0013738
-0.00109976
-0.000874452
-0.000689728
-0.000538813
-0.000416041
-0.000316661
-0.000236682
-0.000172751
-0.000122053
-8.22181e-05
-5.1268e-05
-2.75209e-05
-9.63306e-06
3.7994e-06
1.36109e-05
2.04624e-05
2.49522e-05
2.76053e-05
2.88688e-05
2.91133e-05
2.86376e-05
2.76751e-05
2.64012e-05
2.4941e-05
2.33775e-05
2.17609e-05
2.01172e-05
1.84574e-05
1.67855e-05
1.51048e-05
1.34226e-05
1.17523e-05
1.0114e-05
8.53286e-06
7.03615e-06
5.65058e-06
4.39909e-06
3.29858e-06
2.35843e-06
1.58031e-06
9.58888e-07
4.8289e-07
1.38552e-07
-9.55479e-08
-2.45122e-07
-3.30237e-07
-3.67737e-07
-3.71605e-07
-3.53184e-07
-3.21386e-07
-2.82931e-07
-2.4264e-07
-2.03756e-07
-1.68269e-07
-1.37218e-07
-1.10962e-07
-8.93974e-08
-7.21411e-08
-5.86614e-08
-4.83716e-08
-4.06923e-08
-3.51033e-08
-3.11496e-08
-2.84767e-08
-2.66864e-08
-2.58156e-08
-2.44984e-08
-2.61069e-08
-1.54641e-08
-3.60005e-08
1.07143e-07
-1.38982e-07
1.798e-06
-1.26574e-06
2.50493e-05
-1.34205e-05
0.000347725
-0.000140629
0.00482044
-0.000857751
0.0612699
0.0612698
0.00751344
-0.00751344
-0.0146552
-0.0162812
-0.0149618
-0.0125487
-0.0100746
-0.00795879
-0.00628242
-0.0049902
-0.00399566
-0.00322205
-0.00261163
-0.00212352
-0.00172904
-0.00140772
-0.00114462
-0.000928448
-0.000750524
-0.000604002
-0.000483406
-0.0003843
-0.000303052
-0.00023666
-0.000182631
-0.00013888
-0.000103659
-7.54994e-05
-5.31667e-05
-3.56218e-05
-2.19949e-05
-1.15418e-05
-3.67327e-06
2.34198e-06
6.71467e-06
9.73295e-06
1.16809e-05
1.2808e-05
1.33225e-05
1.33933e-05
1.3153e-05
1.27028e-05
1.21164e-05
1.14451e-05
1.0722e-05
9.96666e-06
9.18977e-06
8.39707e-06
7.59275e-06
6.7819e-06
5.97192e-06
5.17291e-06
4.3972e-06
3.65828e-06
2.96945e-06
2.34242e-06
1.78617e-06
1.30621e-06
9.04321e-07
5.78798e-07
3.25184e-07
1.3779e-07
7.8595e-09
-7.95243e-08
-1.33514e-07
-1.61859e-07
-1.71547e-07
-1.68394e-07
-1.57055e-07
-1.4112e-07
-1.2324e-07
-1.05266e-07
-8.83987e-08
-7.33334e-08
-6.03889e-08
-4.96227e-08
-4.0922e-08
-3.40762e-08
-2.88288e-08
-2.49127e-08
-2.20755e-08
-2.00969e-08
-1.87847e-08
-1.79946e-08
-1.75454e-08
-1.74912e-08
-1.70527e-08
-1.80459e-08
-1.15067e-08
-1.94254e-08
7.23835e-08
-4.19623e-09
1.2431e-06
4.63443e-07
1.73242e-05
1.02312e-05
0.000240749
0.000168623
0.00349273
0.00153689
0.0477907
0.0477907
0
0
0
0
0
0
0
0
0
0
0
0
0
0
0
0
0
0
0
0
0
0
0
0
0
0
0
0
0
0
0
0
0
0
0
0
0
0
0
0
0
0
0
0
0
0
0
0
0
0
0
0
0
0
0
0
0
0
0
0
0
0
0
0
0
0
0
0
0
0
0
0
0
0
0
0
0
0
0
0
0
0
0
0
0
0
0
0
0
0
0
0
0
0
0
0
0
0
0
0
0
0
0
0
0
0
0
0
0
0
0
0
0
0
0
0
0
0
0
0
0
0
0
0
0
0
0
0
0
0
0
0
0
0
0
0
0
0
0
0
0
0
0
0
0
0
0
0
0
0
0
0
0
0
0
0
0
0
0
0
0
0
0
0
0
0
0
0
0
0
0
0
0
0
0
0
0
0
0
0
0
0
0
0
0
0
0
0
0
0
0
0
0
0
0
0
0
0
0
0
0
0
0
0
