# vtk DataFile Version 2.0
FlowField
ASCII
DATASET STRUCTURED_GRID
DIMENSIONS 102 13 1 
POINTS 1326 double
0 0 0
0.3 0 0
0.6 0 0
0.9 0 0
1.2 0 0
1.5 0 0
1.8 0 0
2.1 0 0
2.4 0 0
2.7 0 0
3 0 0
3.3 0 0
3.6 0 0
3.9 0 0
4.2 0 0
4.5 0 0
4.8 0 0
5.1 0 0
5.4 0 0
5.7 0 0
6 0 0
6.3 0 0
6.6 0 0
6.9 0 0
7.2 0 0
7.5 0 0
7.8 0 0
8.1 0 0
8.4 0 0
8.7 0 0
9 0 0
9.3 0 0
9.6 0 0
9.9 0 0
10.2 0 0
10.5 0 0
10.8 0 0
11.1 0 0
11.4 0 0
11.7 0 0
12 0 0
12.3 0 0
12.6 0 0
12.9 0 0
13.2 0 0
13.5 0 0
13.8 0 0
14.1 0 0
14.4 0 0
14.7 0 0
15 0 0
15.3 0 0
15.6 0 0
15.9 0 0
16.2 0 0
16.5 0 0
16.8 0 0
17.1 0 0
17.4 0 0
17.7 0 0
18 0 0
18.3 0 0
18.6 0 0
18.9 0 0
19.2 0 0
19.5 0 0
19.8 0 0
20.1 0 0
20.4 0 0
20.7 0 0
21 0 0
21.3 0 0
21.6 0 0
21.9 0 0
22.2 0 0
22.5 0 0
22.8 0 0
23.1 0 0
23.4 0 0
23.7 0 0
24 0 0
24.3 0 0
24.6 0 0
24.9 0 0
25.2 0 0
25.5 0 0
25.8 0 0
26.1 0 0
26.4 0 0
26.7 0 0
27 0 0
27.3 0 0
27.6 0 0
27.9 0 0
28.2 0 0
28.5 0 0
28.8 0 0
29.1 0 0
29.4 0 0
29.7 0 0
30 0 0
30.3 0 0
0 0.1 0
0.3 0.1 0
0.6 0.1 0
0.9 0.1 0
1.2 0.1 0
1.5 0.1 0
1.8 0.1 0
2.1 0.1 0
2.4 0.1 0
2.7 0.1 0
3 0.1 0
3.3 0.1 0
3.6 0.1 0
3.9 0.1 0
4.2 0.1 0
4.5 0.1 0
4.8 0.1 0
5.1 0.1 0
5.4 0.1 0
5.7 0.1 0
6 0.1 0
6.3 0.1 0
6.6 0.1 0
6.9 0.1 0
7.2 0.1 0
7.5 0.1 0
7.8 0.1 0
8.1 0.1 0
8.4 0.1 0
8.7 0.1 0
9 0.1 0
9.3 0.1 0
9.6 0.1 0
9.9 0.1 0
10.2 0.1 0
10.5 0.1 0
10.8 0.1 0
11.1 0.1 0
11.4 0.1 0
11.7 0.1 0
12 0.1 0
12.3 0.1 0
12.6 0.1 0
12.9 0.1 0
13.2 0.1 0
13.5 0.1 0
13.8 0.1 0
14.1 0.1 0
14.4 0.1 0
14.7 0.1 0
15 0.1 0
15.3 0.1 0
15.6 0.1 0
15.9 0.1 0
16.2 0.1 0
16.5 0.1 0
16.8 0.1 0
17.1 0.1 0
17.4 0.1 0
17.7 0.1 0
18 0.1 0
18.3 0.1 0
18.6 0.1 0
18.9 0.1 0
19.2 0.1 0
19.5 0.1 0
19.8 0.1 0
20.1 0.1 0
20.4 0.1 0
20.7 0.1 0
21 0.1 0
21.3 0.1 0
21.6 0.1 0
21.9 0.1 0
22.2 0.1 0
22.5 0.1 0
22.8 0.1 0
23.1 0.1 0
23.4 0.1 0
23.7 0.1 0
24 0.1 0
24.3 0.1 0
24.6 0.1 0
24.9 0.1 0
25.2 0.1 0
25.5 0.1 0
25.8 0.1 0
26.1 0.1 0
26.4 0.1 0
26.7 0.1 0
27 0.1 0
27.3 0.1 0
27.6 0.1 0
27.9 0.1 0
28.2 0.1 0
28.5 0.1 0
28.8 0.1 0
29.1 0.1 0
29.4 0.1 0
29.7 0.1 0
30 0.1 0
30.3 0.1 0
0 0.2 0
0.3 0.2 0
0.6 0.2 0
0.9 0.2 0
1.2 0.2 0
1.5 0.2 0
1.8 0.2 0
2.1 0.2 0
2.4 0.2 0
2.7 0.2 0
3 0.2 0
3.3 0.2 0
3.6 0.2 0
3.9 0.2 0
4.2 0.2 0
4.5 0.2 0
4.8 0.2 0
5.1 0.2 0
5.4 0.2 0
5.7 0.2 0
6 0.2 0
6.3 0.2 0
6.6 0.2 0
6.9 0.2 0
7.2 0.2 0
7.5 0.2 0
7.8 0.2 0
8.1 0.2 0
8.4 0.2 0
8.7 0.2 0
9 0.2 0
9.3 0.2 0
9.6 0.2 0
9.9 0.2 0
10.2 0.2 0
10.5 0.2 0
10.8 0.2 0
11.1 0.2 0
11.4 0.2 0
11.7 0.2 0
12 0.2 0
12.3 0.2 0
12.6 0.2 0
12.9 0.2 0
13.2 0.2 0
13.5 0.2 0
13.8 0.2 0
14.1 0.2 0
14.4 0.2 0
14.7 0.2 0
15 0.2 0
15.3 0.2 0
15.6 0.2 0
15.9 0.2 0
16.2 0.2 0
16.5 0.2 0
16.8 0.2 0
17.1 0.2 0
17.4 0.2 0
17.7 0.2 0
18 0.2 0
18.3 0.2 0
18.6 0.2 0
18.9 0.2 0
19.2 0.2 0
19.5 0.2 0
19.8 0.2 0
20.1 0.2 0
20.4 0.2 0
20.7 0.2 0
21 0.2 0
21.3 0.2 0
21.6 0.2 0
21.9 0.2 0
22.2 0.2 0
22.5 0.2 0
22.8 0.2 0
23.1 0.2 0
23.4 0.2 0
23.7 0.2 0
24 0.2 0
24.3 0.2 0
24.6 0.2 0
24.9 0.2 0
25.2 0.2 0
25.5 0.2 0
25.8 0.2 0
26.1 0.2 0
26.4 0.2 0
26.7 0.2 0
27 0.2 0
27.3 0.2 0
27.6 0.2 0
27.9 0.2 0
28.2 0.2 0
28.5 0.2 0
28.8 0.2 0
29.1 0.2 0
29.4 0.2 0
29.7 0.2 0
30 0.2 0
30.3 0.2 0
0 0.3 0
0.3 0.3 0
0.6 0.3 0
0.9 0.3 0
1.2 0.3 0
1.5 0.3 0
1.8 0.3 0
2.1 0.3 0
2.4 0.3 0
2.7 0.3 0
3 0.3 0
3.3 0.3 0
3.6 0.3 0
3.9 0.3 0
4.2 0.3 0
4.5 0.3 0
4.8 0.3 0
5.1 0.3 0
5.4 0.3 0
5.7 0.3 0
6 0.3 0
6.3 0.3 0
6.6 0.3 0
6.9 0.3 0
7.2 0.3 0
7.5 0.3 0
7.8 0.3 0
8.1 0.3 0
8.4 0.3 0
8.7 0.3 0
9 0.3 0
9.3 0.3 0
9.6 0.3 0
9.9 0.3 0
10.2 0.3 0
10.5 0.3 0
10.8 0.3 0
11.1 0.3 0
11.4 0.3 0
11.7 0.3 0
12 0.3 0
12.3 0.3 0
12.6 0.3 0
12.9 0.3 0
13.2 0.3 0
13.5 0.3 0
13.8 0.3 0
14.1 0.3 0
14.4 0.3 0
14.7 0.3 0
15 0.3 0
15.3 0.3 0
15.6 0.3 0
15.9 0.3 0
16.2 0.3 0
16.5 0.3 0
16.8 0.3 0
17.1 0.3 0
17.4 0.3 0
17.7 0.3 0
18 0.3 0
18.3 0.3 0
18.6 0.3 0
18.9 0.3 0
19.2 0.3 0
19.5 0.3 0
19.8 0.3 0
20.1 0.3 0
20.4 0.3 0
20.7 0.3 0
21 0.3 0
21.3 0.3 0
21.6 0.3 0
21.9 0.3 0
22.2 0.3 0
22.5 0.3 0
22.8 0.3 0
23.1 0.3 0
23.4 0.3 0
23.7 0.3 0
24 0.3 0
24.3 0.3 0
24.6 0.3 0
24.9 0.3 0
25.2 0.3 0
25.5 0.3 0
25.8 0.3 0
26.1 0.3 0
26.4 0.3 0
26.7 0.3 0
27 0.3 0
27.3 0.3 0
27.6 0.3 0
27.9 0.3 0
28.2 0.3 0
28.5 0.3 0
28.8 0.3 0
29.1 0.3 0
29.4 0.3 0
29.7 0.3 0
30 0.3 0
30.3 0.3 0
0 0.4 0
0.3 0.4 0
0.6 0.4 0
0.9 0.4 0
1.2 0.4 0
1.5 0.4 0
1.8 0.4 0
2.1 0.4 0
2.4 0.4 0
2.7 0.4 0
3 0.4 0
3.3 0.4 0
3.6 0.4 0
3.9 0.4 0
4.2 0.4 0
4.5 0.4 0
4.8 0.4 0
5.1 0.4 0
5.4 0.4 0
5.7 0.4 0
6 0.4 0
6.3 0.4 0
6.6 0.4 0
6.9 0.4 0
7.2 0.4 0
7.5 0.4 0
7.8 0.4 0
8.1 0.4 0
8.4 0.4 0
8.7 0.4 0
9 0.4 0
9.3 0.4 0
9.6 0.4 0
9.9 0.4 0
10.2 0.4 0
10.5 0.4 0
10.8 0.4 0
11.1 0.4 0
11.4 0.4 0
11.7 0.4 0
12 0.4 0
12.3 0.4 0
12.6 0.4 0
12.9 0.4 0
13.2 0.4 0
13.5 0.4 0
13.8 0.4 0
14.1 0.4 0
14.4 0.4 0
14.7 0.4 0
15 0.4 0
15.3 0.4 0
15.6 0.4 0
15.9 0.4 0
16.2 0.4 0
16.5 0.4 0
16.8 0.4 0
17.1 0.4 0
17.4 0.4 0
17.7 0.4 0
18 0.4 0
18.3 0.4 0
18.6 0.4 0
18.9 0.4 0
19.2 0.4 0
19.5 0.4 0
19.8 0.4 0
20.1 0.4 0
20.4 0.4 0
20.7 0.4 0
21 0.4 0
21.3 0.4 0
21.6 0.4 0
21.9 0.4 0
22.2 0.4 0
22.5 0.4 0
22.8 0.4 0
23.1 0.4 0
23.4 0.4 0
23.7 0.4 0
24 0.4 0
24.3 0.4 0
24.6 0.4 0
24.9 0.4 0
25.2 0.4 0
25.5 0.4 0
25.8 0.4 0
26.1 0.4 0
26.4 0.4 0
26.7 0.4 0
27 0.4 0
27.3 0.4 0
27.6 0.4 0
27.9 0.4 0
28.2 0.4 0
28.5 0.4 0
28.8 0.4 0
29.1 0.4 0
29.4 0.4 0
29.7 0.4 0
30 0.4 0
30.3 0.4 0
0 0.5 0
0.3 0.5 0
0.6 0.5 0
0.9 0.5 0
1.2 0.5 0
1.5 0.5 0
1.8 0.5 0
2.1 0.5 0
2.4 0.5 0
2.7 0.5 0
3 0.5 0
3.3 0.5 0
3.6 0.5 0
3.9 0.5 0
4.2 0.5 0
4.5 0.5 0
4.8 0.5 0
5.1 0.5 0
5.4 0.5 0
5.7 0.5 0
6 0.5 0
6.3 0.5 0
6.6 0.5 0
6.9 0.5 0
7.2 0.5 0
7.5 0.5 0
7.8 0.5 0
8.1 0.5 0
8.4 0.5 0
8.7 0.5 0
9 0.5 0
9.3 0.5 0
9.6 0.5 0
9.9 0.5 0
10.2 0.5 0
10.5 0.5 0
10.8 0.5 0
11.1 0.5 0
11.4 0.5 0
11.7 0.5 0
12 0.5 0
12.3 0.5 0
12.6 0.5 0
12.9 0.5 0
13.2 0.5 0
13.5 0.5 0
13.8 0.5 0
14.1 0.5 0
14.4 0.5 0
14.7 0.5 0
15 0.5 0
15.3 0.5 0
15.6 0.5 0
15.9 0.5 0
16.2 0.5 0
16.5 0.5 0
16.8 0.5 0
17.1 0.5 0
17.4 0.5 0
17.7 0.5 0
18 0.5 0
18.3 0.5 0
18.6 0.5 0
18.9 0.5 0
19.2 0.5 0
19.5 0.5 0
19.8 0.5 0
20.1 0.5 0
20.4 0.5 0
20.7 0.5 0
21 0.5 0
21.3 0.5 0
21.6 0.5 0
21.9 0.5 0
22.2 0.5 0
22.5 0.5 0
22.8 0.5 0
23.1 0.5 0
23.4 0.5 0
23.7 0.5 0
24 0.5 0
24.3 0.5 0
24.6 0.5 0
24.9 0.5 0
25.2 0.5 0
25.5 0.5 0
25.8 0.5 0
26.1 0.5 0
26.4 0.5 0
26.7 0.5 0
27 0.5 0
27.3 0.5 0
27.6 0.5 0
27.9 0.5 0
28.2 0.5 0
28.5 0.5 0
28.8 0.5 0
29.1 0.5 0
29.4 0.5 0
29.7 0.5 0
30 0.5 0
30.3 0.5 0
0 0.6 0
0.3 0.6 0
0.6 0.6 0
0.9 0.6 0
1.2 0.6 0
1.5 0.6 0
1.8 0.6 0
2.1 0.6 0
2.4 0.6 0
2.7 0.6 0
3 0.6 0
3.3 0.6 0
3.6 0.6 0
3.9 0.6 0
4.2 0.6 0
4.5 0.6 0
4.8 0.6 0
5.1 0.6 0
5.4 0.6 0
5.7 0.6 0
6 0.6 0
6.3 0.6 0
6.6 0.6 0
6.9 0.6 0
7.2 0.6 0
7.5 0.6 0
7.8 0.6 0
8.1 0.6 0
8.4 0.6 0
8.7 0.6 0
9 0.6 0
9.3 0.6 0
9.6 0.6 0
9.9 0.6 0
10.2 0.6 0
10.5 0.6 0
10.8 0.6 0
11.1 0.6 0
11.4 0.6 0
11.7 0.6 0
12 0.6 0
12.3 0.6 0
12.6 0.6 0
12.9 0.6 0
13.2 0.6 0
13.5 0.6 0
13.8 0.6 0
14.1 0.6 0
14.4 0.6 0
14.7 0.6 0
15 0.6 0
15.3 0.6 0
15.6 0.6 0
15.9 0.6 0
16.2 0.6 0
16.5 0.6 0
16.8 0.6 0
17.1 0.6 0
17.4 0.6 0
17.7 0.6 0
18 0.6 0
18.3 0.6 0
18.6 0.6 0
18.9 0.6 0
19.2 0.6 0
19.5 0.6 0
19.8 0.6 0
20.1 0.6 0
20.4 0.6 0
20.7 0.6 0
21 0.6 0
21.3 0.6 0
21.6 0.6 0
21.9 0.6 0
22.2 0.6 0
22.5 0.6 0
22.8 0.6 0
23.1 0.6 0
23.4 0.6 0
23.7 0.6 0
24 0.6 0
24.3 0.6 0
24.6 0.6 0
24.9 0.6 0
25.2 0.6 0
25.5 0.6 0
25.8 0.6 0
26.1 0.6 0
26.4 0.6 0
26.7 0.6 0
27 0.6 0
27.3 0.6 0
27.6 0.6 0
27.9 0.6 0
28.2 0.6 0
28.5 0.6 0
28.8 0.6 0
29.1 0.6 0
29.4 0.6 0
29.7 0.6 0
30 0.6 0
30.3 0.6 0
0 0.7 0
0.3 0.7 0
0.6 0.7 0
0.9 0.7 0
1.2 0.7 0
1.5 0.7 0
1.8 0.7 0
2.1 0.7 0
2.4 0.7 0
2.7 0.7 0
3 0.7 0
3.3 0.7 0
3.6 0.7 0
3.9 0.7 0
4.2 0.7 0
4.5 0.7 0
4.8 0.7 0
5.1 0.7 0
5.4 0.7 0
5.7 0.7 0
6 0.7 0
6.3 0.7 0
6.6 0.7 0
6.9 0.7 0
7.2 0.7 0
7.5 0.7 0
7.8 0.7 0
8.1 0.7 0
8.4 0.7 0
8.7 0.7 0
9 0.7 0
9.3 0.7 0
9.6 0.7 0
9.9 0.7 0
10.2 0.7 0
10.5 0.7 0
10.8 0.7 0
11.1 0.7 0
11.4 0.7 0
11.7 0.7 0
12 0.7 0
12.3 0.7 0
12.6 0.7 0
12.9 0.7 0
13.2 0.7 0
13.5 0.7 0
13.8 0.7 0
14.1 0.7 0
14.4 0.7 0
14.7 0.7 0
15 0.7 0
15.3 0.7 0
15.6 0.7 0
15.9 0.7 0
16.2 0.7 0
16.5 0.7 0
16.8 0.7 0
17.1 0.7 0
17.4 0.7 0
17.7 0.7 0
18 0.7 0
18.3 0.7 0
18.6 0.7 0
18.9 0.7 0
19.2 0.7 0
19.5 0.7 0
19.8 0.7 0
20.1 0.7 0
20.4 0.7 0
20.7 0.7 0
21 0.7 0
21.3 0.7 0
21.6 0.7 0
21.9 0.7 0
22.2 0.7 0
22.5 0.7 0
22.8 0.7 0
23.1 0.7 0
23.4 0.7 0
23.7 0.7 0
24 0.7 0
24.3 0.7 0
24.6 0.7 0
24.9 0.7 0
25.2 0.7 0
25.5 0.7 0
25.8 0.7 0
26.1 0.7 0
26.4 0.7 0
26.7 0.7 0
27 0.7 0
27.3 0.7 0
27.6 0.7 0
27.9 0.7 0
28.2 0.7 0
28.5 0.7 0
28.8 0.7 0
29.1 0.7 0
29.4 0.7 0
29.7 0.7 0
30 0.7 0
30.3 0.7 0
0 0.8 0
0.3 0.8 0
0.6 0.8 0
0.9 0.8 0
1.2 0.8 0
1.5 0.8 0
1.8 0.8 0
2.1 0.8 0
2.4 0.8 0
2.7 0.8 0
3 0.8 0
3.3 0.8 0
3.6 0.8 0
3.9 0.8 0
4.2 0.8 0
4.5 0.8 0
4.8 0.8 0
5.1 0.8 0
5.4 0.8 0
5.7 0.8 0
6 0.8 0
6.3 0.8 0
6.6 0.8 0
6.9 0.8 0
7.2 0.8 0
7.5 0.8 0
7.8 0.8 0
8.1 0.8 0
8.4 0.8 0
8.7 0.8 0
9 0.8 0
9.3 0.8 0
9.6 0.8 0
9.9 0.8 0
10.2 0.8 0
10.5 0.8 0
10.8 0.8 0
11.1 0.8 0
11.4 0.8 0
11.7 0.8 0
12 0.8 0
12.3 0.8 0
12.6 0.8 0
12.9 0.8 0
13.2 0.8 0
13.5 0.8 0
13.8 0.8 0
14.1 0.8 0
14.4 0.8 0
14.7 0.8 0
15 0.8 0
15.3 0.8 0
15.6 0.8 0
15.9 0.8 0
16.2 0.8 0
16.5 0.8 0
16.8 0.8 0
17.1 0.8 0
17.4 0.8 0
17.7 0.8 0
18 0.8 0
18.3 0.8 0
18.6 0.8 0
18.9 0.8 0
19.2 0.8 0
19.5 0.8 0
19.8 0.8 0
20.1 0.8 0
20.4 0.8 0
20.7 0.8 0
21 0.8 0
21.3 0.8 0
21.6 0.8 0
21.9 0.8 0
22.2 0.8 0
22.5 0.8 0
22.8 0.8 0
23.1 0.8 0
23.4 0.8 0
23.7 0.8 0
24 0.8 0
24.3 0.8 0
24.6 0.8 0
24.9 0.8 0
25.2 0.8 0
25.5 0.8 0
25.8 0.8 0
26.1 0.8 0
26.4 0.8 0
26.7 0.8 0
27 0.8 0
27.3 0.8 0
27.6 0.8 0
27.9 0.8 0
28.2 0.8 0
28.5 0.8 0
28.8 0.8 0
29.1 0.8 0
29.4 0.8 0
29.7 0.8 0
30 0.8 0
30.3 0.8 0
0 0.9 0
0.3 0.9 0
0.6 0.9 0
0.9 0.9 0
1.2 0.9 0
1.5 0.9 0
1.8 0.9 0
2.1 0.9 0
2.4 0.9 0
2.7 0.9 0
3 0.9 0
3.3 0.9 0
3.6 0.9 0
3.9 0.9 0
4.2 0.9 0
4.5 0.9 0
4.8 0.9 0
5.1 0.9 0
5.4 0.9 0
5.7 0.9 0
6 0.9 0
6.3 0.9 0
6.6 0.9 0
6.9 0.9 0
7.2 0.9 0
7.5 0.9 0
7.8 0.9 0
8.1 0.9 0
8.4 0.9 0
8.7 0.9 0
9 0.9 0
9.3 0.9 0
9.6 0.9 0
9.9 0.9 0
10.2 0.9 0
10.5 0.9 0
10.8 0.9 0
11.1 0.9 0
11.4 0.9 0
11.7 0.9 0
12 0.9 0
12.3 0.9 0
12.6 0.9 0
12.9 0.9 0
13.2 0.9 0
13.5 0.9 0
13.8 0.9 0
14.1 0.9 0
14.4 0.9 0
14.7 0.9 0
15 0.9 0
15.3 0.9 0
15.6 0.9 0
15.9 0.9 0
16.2 0.9 0
16.5 0.9 0
16.8 0.9 0
17.1 0.9 0
17.4 0.9 0
17.7 0.9 0
18 0.9 0
18.3 0.9 0
18.6 0.9 0
18.9 0.9 0
19.2 0.9 0
19.5 0.9 0
19.8 0.9 0
20.1 0.9 0
20.4 0.9 0
20.7 0.9 0
21 0.9 0
21.3 0.9 0
21.6 0.9 0
21.9 0.9 0
22.2 0.9 0
22.5 0.9 0
22.8 0.9 0
23.1 0.9 0
23.4 0.9 0
23.7 0.9 0
24 0.9 0
24.3 0.9 0
24.6 0.9 0
24.9 0.9 0
25.2 0.9 0
25.5 0.9 0
25.8 0.9 0
26.1 0.9 0
26.4 0.9 0
26.7 0.9 0
27 0.9 0
27.3 0.9 0
27.6 0.9 0
27.9 0.9 0
28.2 0.9 0
28.5 0.9 0
28.8 0.9 0
29.1 0.9 0
29.4 0.9 0
29.7 0.9 0
30 0.9 0
30.3 0.9 0
0 1 0
0.3 1 0
0.6 1 0
0.9 1 0
1.2 1 0
1.5 1 0
1.8 1 0
2.1 1 0
2.4 1 0
2.7 1 0
3 1 0
3.3 1 0
3.6 1 0
3.9 1 0
4.2 1 0
4.5 1 0
4.8 1 0
5.1 1 0
5.4 1 0
5.7 1 0
6 1 0
6.3 1 0
6.6 1 0
6.9 1 0
7.2 1 0
7.5 1 0
7.8 1 0
8.1 1 0
8.4 1 0
8.7 1 0
9 1 0
9.3 1 0
9.6 1 0
9.9 1 0
10.2 1 0
10.5 1 0
10.8 1 0
11.1 1 0
11.4 1 0
11.7 1 0
12 1 0
12.3 1 0
12.6 1 0
12.9 1 0
13.2 1 0
13.5 1 0
13.8 1 0
14.1 1 0
14.4 1 0
14.7 1 0
15 1 0
15.3 1 0
15.6 1 0
15.9 1 0
16.2 1 0
16.5 1 0
16.8 1 0
17.1 1 0
17.4 1 0
17.7 1 0
18 1 0
18.3 1 0
18.6 1 0
18.9 1 0
19.2 1 0
19.5 1 0
19.8 1 0
20.1 1 0
20.4 1 0
20.7 1 0
21 1 0
21.3 1 0
21.6 1 0
21.9 1 0
22.2 1 0
22.5 1 0
22.8 1 0
23.1 1 0
23.4 1 0
23.7 1 0
24 1 0
24.3 1 0
24.6 1 0
24.9 1 0
25.2 1 0
25.5 1 0
25.8 1 0
26.1 1 0
26.4 1 0
26.7 1 0
27 1 0
27.3 1 0
27.6 1 0
27.9 1 0
28.2 1 0
28.5 1 0
28.8 1 0
29.1 1 0
29.4 1 0
29.7 1 0
30 1 0
30.3 1 0
0 1.1 0
0.3 1.1 0
0.6 1.1 0
0.9 1.1 0
1.2 1.1 0
1.5 1.1 0
1.8 1.1 0
2.1 1.1 0
2.4 1.1 0
2.7 1.1 0
3 1.1 0
3.3 1.1 0
3.6 1.1 0
3.9 1.1 0
4.2 1.1 0
4.5 1.1 0
4.8 1.1 0
5.1 1.1 0
5.4 1.1 0
5.7 1.1 0
6 1.1 0
6.3 1.1 0
6.6 1.1 0
6.9 1.1 0
7.2 1.1 0
7.5 1.1 0
7.8 1.1 0
8.1 1.1 0
8.4 1.1 0
8.7 1.1 0
9 1.1 0
9.3 1.1 0
9.6 1.1 0
9.9 1.1 0
10.2 1.1 0
10.5 1.1 0
10.8 1.1 0
11.1 1.1 0
11.4 1.1 0
11.7 1.1 0
12 1.1 0
12.3 1.1 0
12.6 1.1 0
12.9 1.1 0
13.2 1.1 0
13.5 1.1 0
13.8 1.1 0
14.1 1.1 0
14.4 1.1 0
14.7 1.1 0
15 1.1 0
15.3 1.1 0
15.6 1.1 0
15.9 1.1 0
16.2 1.1 0
16.5 1.1 0
16.8 1.1 0
17.1 1.1 0
17.4 1.1 0
17.7 1.1 0
18 1.1 0
18.3 1.1 0
18.6 1.1 0
18.9 1.1 0
19.2 1.1 0
19.5 1.1 0
19.8 1.1 0
20.1 1.1 0
20.4 1.1 0
20.7 1.1 0
21 1.1 0
21.3 1.1 0
21.6 1.1 0
21.9 1.1 0
22.2 1.1 0
22.5 1.1 0
22.8 1.1 0
23.1 1.1 0
23.4 1.1 0
23.7 1.1 0
24 1.1 0
24.3 1.1 0
24.6 1.1 0
24.9 1.1 0
25.2 1.1 0
25.5 1.1 0
25.8 1.1 0
26.1 1.1 0
26.4 1.1 0
26.7 1.1 0
27 1.1 0
27.3 1.1 0
27.6 1.1 0
27.9 1.1 0
28.2 1.1 0
28.5 1.1 0
28.8 1.1 0
29.1 1.1 0
29.4 1.1 0
29.7 1.1 0
30 1.1 0
30.3 1.1 0
0 1.2 0
0.3 1.2 0
0.6 1.2 0
0.9 1.2 0
1.2 1.2 0
1.5 1.2 0
1.8 1.2 0
2.1 1.2 0
2.4 1.2 0
2.7 1.2 0
3 1.2 0
3.3 1.2 0
3.6 1.2 0
3.9 1.2 0
4.2 1.2 0
4.5 1.2 0
4.8 1.2 0
5.1 1.2 0
5.4 1.2 0
5.7 1.2 0
6 1.2 0
6.3 1.2 0
6.6 1.2 0
6.9 1.2 0
7.2 1.2 0
7.5 1.2 0
7.8 1.2 0
8.1 1.2 0
8.4 1.2 0
8.7 1.2 0
9 1.2 0
9.3 1.2 0
9.6 1.2 0
9.9 1.2 0
10.2 1.2 0
10.5 1.2 0
10.8 1.2 0
11.1 1.2 0
11.4 1.2 0
11.7 1.2 0
12 1.2 0
12.3 1.2 0
12.6 1.2 0
12.9 1.2 0
13.2 1.2 0
13.5 1.2 0
13.8 1.2 0
14.1 1.2 0
14.4 1.2 0
14.7 1.2 0
15 1.2 0
15.3 1.2 0
15.6 1.2 0
15.9 1.2 0
16.2 1.2 0
16.5 1.2 0
16.8 1.2 0
17.1 1.2 0
17.4 1.2 0
17.7 1.2 0
18 1.2 0
18.3 1.2 0
18.6 1.2 0
18.9 1.2 0
19.2 1.2 0
19.5 1.2 0
19.8 1.2 0
20.1 1.2 0
20.4 1.2 0
20.7 1.2 0
21 1.2 0
21.3 1.2 0
21.6 1.2 0
21.9 1.2 0
22.2 1.2 0
22.5 1.2 0
22.8 1.2 0
23.1 1.2 0
23.4 1.2 0
23.7 1.2 0
24 1.2 0
24.3 1.2 0
24.6 1.2 0
24.9 1.2 0
25.2 1.2 0
25.5 1.2 0
25.8 1.2 0
26.1 1.2 0
26.4 1.2 0
26.7 1.2 0
27 1.2 0
27.3 1.2 0
27.6 1.2 0
27.9 1.2 0
28.2 1.2 0
28.5 1.2 0
28.8 1.2 0
29.1 1.2 0
29.4 1.2 0
29.7 1.2 0
30 1.2 0
30.3 1.2 0

POINT_DATA 1326

SCALARS v double
LOOKUP_TABLE default
0
0
0
0
0
0
0
0
0
0
0
0
0
0
0
0
0
0
0
0
0
0
0
0
0
0
0
0
0
0
0
0
0
0
0
0
0
0
0
0
0
0
0
0
0
0
0
0
0
0
0
0
0
0
0
0
0
0
0
0
0
0
0
0
0
0
0
0
0
0
0
0
0
0
0
0
0
0
0
0
0
0
0
0
0
0
0
0
0
0
0
0
0
0
0
0
0
0
0
0
0
0
-0.0370799
0.0370799
0.0391133
0.0336313
0.0272525
0.0213215
0.0162805
0.0122495
0.00917274
0.00690397
0.00526865
0.00410327
0.00327339
0.00267717
0.00224159
0.00191618
0.00166666
0.00147003
0.00131104
0.00117957
0.00106866
0.000973502
0.000890772
0.000818121
0.000753778
0.000696363
0.000644816
0.000598324
0.000556233
0.000517974
0.000483061
0.000451105
0.00042179
0.000394833
0.000369976
0.000346995
0.000325714
0.00030598
0.00028765
0.000270582
0.000254665
0.00023982
0.000225953
0.000212972
0.000200817
0.000189432
0.000178746
0.000168708
0.000159281
0.000150423
0.00014209
0.000134241
0.000126847
0.000119885
0.000113327
0.000107142
0.000101301
9.57893e-05
9.05962e-05
8.56932e-05
8.10544e-05
7.66741e-05
7.25421e-05
6.86369e-05
6.49432e-05
6.14511e-05
5.81501e-05
5.50304e-05
5.20823e-05
4.92926e-05
4.6652e-05
4.41548e-05
4.17932e-05
3.956e-05
3.74473e-05
3.54476e-05
3.3556e-05
3.17668e-05
3.00747e-05
2.84744e-05
2.6961e-05
2.553e-05
2.41767e-05
2.28964e-05
2.16842e-05
2.05361e-05
1.94476e-05
1.84134e-05
1.74291e-05
1.649e-05
1.55915e-05
1.47295e-05
1.38991e-05
1.30999e-05
1.23159e-05
1.15875e-05
1.07506e-05
1.02665e-05
8.4774e-06
8.85992e-06
-3.85971e-08
-3.85971e-08
-0.0282544
0.0282544
0.038741
0.0375699
0.0331777
0.0280244
0.0230972
0.0188234
0.0153293
0.0125738
0.0104408
0.00879741
0.00752361
0.00652314
0.00572373
0.0050731
0.00453396
0.00407989
0.00369215
0.00335722
0.00306501
0.00280794
0.00258028
0.0023775
0.00219596
0.00203266
0.00188519
0.00175154
0.00163002
0.00151918
0.00141776
0.00132474
0.00123923
0.00116042
0.00108764
0.00102029
0.000957853
0.000899888
0.000845981
0.000795766
0.000748935
0.000705221
0.000664357
0.000626113
0.0005903
0.000556733
0.000525233
0.000495658
0.000467879
0.000441767
0.000417202
0.00039408
0.000372311
0.000351808
0.00033249
0.000314275
0.000297092
0.000280887
0.000265603
0.000251172
0.000237542
0.000224676
0.000212528
0.000201048
0.0001902
0.000179949
0.000170261
0.000161105
0.000152449
0.000144263
0.000136521
0.000129201
0.000122278
0.000115731
0.000109538
0.000103679
9.81388e-05
9.28986e-05
8.79429e-05
8.3256e-05
7.88235e-05
7.46311e-05
7.06649e-05
6.69108e-05
6.33549e-05
5.9984e-05
5.67842e-05
5.37412e-05
5.08415e-05
4.80718e-05
4.54189e-05
4.28708e-05
4.04152e-05
3.80463e-05
3.57383e-05
3.35412e-05
3.1211e-05
2.94483e-05
2.52971e-05
2.57479e-05
-1.28086e-07
-1.28086e-07
-0.0177597
0.0177597
0.0281239
0.029097
0.0269195
0.0237
0.0203368
0.0172614
0.0146483
0.0125199
0.0108216
0.00947163
0.00839006
0.00751002
0.00678034
0.0061637
0.00563341
0.00517061
0.00476196
0.00439776
0.00407072
0.00377533
0.00350737
0.00326338
0.00304047
0.00283625
0.00264873
0.00247618
0.00231708
0.00217011
0.0020341
0.00190806
0.00179107
0.00168234
0.00158115
0.00148685
0.0013989
0.00131677
0.00124
0.00116817
0.0011009
0.00103788
0.000978768
0.000923289
0.000871198
0.000822251
0.000776226
0.000732937
0.000692205
0.000653855
0.00061773
0.000583691
0.000551611
0.000521367
0.000492842
0.000465928
0.000440528
0.00041656
0.000393935
0.000372564
0.000352378
0.000333317
0.000315309
0.000298289
0.000282203
0.000267001
0.000252631
0.000239047
0.000226203
0.000214055
0.000202568
0.000191705
0.000181431
0.000171714
0.000162522
0.000153827
0.000145604
0.000137826
0.000130469
0.000123511
0.00011693
0.000110705
0.000104815
9.92397e-05
9.39588e-05
8.89527e-05
8.42008e-05
7.9683e-05
7.53794e-05
7.12707e-05
6.73379e-05
6.35634e-05
5.99299e-05
5.64259e-05
5.30228e-05
4.97637e-05
4.63948e-05
4.3657e-05
3.80787e-05
3.85191e-05
-1.83901e-07
-1.83901e-07
-0.00966195
0.00966195
0.0165163
0.017616
0.016649
0.0149526
0.0130935
0.0113491
0.00984093
0.0085962
0.00759148
0.00678378
0.00612853
0.00558762
0.00513166
0.0047392
0.004395
0.00408848
0.00381231
0.00356121
0.00333131
0.00311979
0.00292449
0.00274363
0.00257574
0.00241962
0.00227423
0.00213867
0.00201211
0.00189385
0.00178322
0.00167967
0.00158268
0.00149174
0.00140643
0.00132636
0.00125117
0.00118051
0.00111409
0.00105161
0.00099283
0.000937506
0.000885405
0.000836331
0.000790097
0.000746516
0.000705424
0.00066668
0.000630137
0.000595655
0.000563114
0.0005324
0.000503407
0.000476033
0.000450181
0.000425759
0.00040269
0.0003809
0.000360311
0.000340846
0.000322452
0.000305071
0.000288638
0.0002731
0.000258409
0.000244519
0.000231385
0.000218964
0.000207215
0.000196102
0.00018559
0.000175648
0.000166243
0.000157346
0.000148928
0.000140965
0.000133432
0.000126307
0.000119566
0.00011319
0.000107159
0.000101454
9.60546e-05
9.09436e-05
8.61028e-05
8.15142e-05
7.71594e-05
7.30204e-05
6.90795e-05
6.53194e-05
6.1723e-05
5.82745e-05
5.49583e-05
5.17631e-05
4.86657e-05
4.5695e-05
4.26567e-05
4.01207e-05
3.5255e-05
3.55757e-05
-1.59373e-07
-1.59373e-07
-0.0030644
0.0030644
0.00542172
0.0058522
0.00557284
0.0050414
0.00444941
0.00388978
0.00340388
0.00300174
0.00267647
0.00241445
0.00220129
0.0020246
0.0018748
0.00174489
0.00162994
0.00152659
0.00143256
0.00134616
0.00126623
0.00119197
0.00112274
0.00105803
0.000997417
0.000940583
0.000887237
0.00083712
0.000790002
0.000745673
0.000703952
0.000664676
0.000627685
0.000592827
0.000559972
0.000529003
0.000499805
0.000472265
0.000446281
0.000421766
0.000398636
0.000376805
0.000356193
0.000336736
0.000318367
0.000301015
0.000284627
0.000269153
0.000254535
0.00024072
0.000227667
0.000215335
0.000203682
0.000192668
0.000182257
0.000172414
0.000163111
0.00015432
0.000146005
0.000138139
0.000130706
0.000123679
0.00011703
0.000110742
0.000104795
9.91714e-05
9.38523e-05
8.88201e-05
8.40592e-05
7.95553e-05
7.52951e-05
7.12651e-05
6.74523e-05
6.38445e-05
6.0431e-05
5.72019e-05
5.4147e-05
5.1257e-05
4.8523e-05
4.59368e-05
4.34902e-05
4.11756e-05
3.89851e-05
3.69113e-05
3.49473e-05
3.30856e-05
3.13188e-05
2.96396e-05
2.80411e-05
2.65162e-05
2.50582e-05
2.36605e-05
2.2317e-05
2.1023e-05
1.97697e-05
1.85664e-05
1.7343e-05
1.63042e-05
1.43831e-05
1.44428e-05
-6.4563e-08
-6.4563e-08
0.00306441
-0.00306441
-0.00542172
-0.00585224
-0.00557287
-0.0050414
-0.00444943
-0.00388985
-0.00340392
-0.00300175
-0.00267649
-0.00241449
-0.00220133
-0.00202464
-0.00187482
-0.00174489
-0.00162998
-0.00152665
-0.00143257
-0.00134616
-0.00126627
-0.00119201
-0.00112275
-0.00105804
-0.00099744
-0.000940605
-0.000887253
-0.000837131
-0.000790009
-0.000745685
-0.000703968
-0.000664686
-0.000627688
-0.000592834
-0.000559985
-0.000529012
-0.000499808
-0.000472267
-0.000446288
-0.000421775
-0.00039864
-0.000376807
-0.0003562
-0.000336741
-0.000318368
-0.000301022
-0.000284636
-0.000269155
-0.000254535
-0.000240724
-0.000227673
-0.00021534
-0.000203685
-0.00019267
-0.00018226
-0.000172421
-0.000163117
-0.00015432
-0.000146007
-0.000138147
-0.00013071
-0.000123679
-0.000117033
-0.000110746
-0.000104798
-9.91726e-05
-9.38518e-05
-8.88194e-05
-8.40586e-05
-7.95545e-05
-7.52928e-05
-7.12606e-05
-6.74459e-05
-6.3837e-05
-6.04222e-05
-5.71911e-05
-5.41343e-05
-5.12422e-05
-4.85062e-05
-4.59177e-05
-4.3469e-05
-4.11522e-05
-3.89599e-05
-3.68846e-05
-3.49189e-05
-3.30558e-05
-3.12881e-05
-2.96084e-05
-2.80098e-05
-2.64852e-05
-2.50279e-05
-2.36315e-05
-2.22898e-05
-2.0998e-05
-1.97473e-05
-1.85469e-05
-1.73268e-05
-1.62916e-05
-1.43752e-05
-1.44391e-05
5.84273e-08
5.84273e-08
0.00966197
-0.00966197
-0.0165164
-0.017616
-0.016649
-0.0149526
-0.0130935
-0.0113491
-0.00984098
-0.00859622
-0.0075915
-0.00678381
-0.00612855
-0.00558766
-0.00513169
-0.0047392
-0.00439502
-0.00408852
-0.00381233
-0.00356121
-0.00333133
-0.00311982
-0.0029245
-0.00274364
-0.00257575
-0.00241963
-0.00227425
-0.00213868
-0.00201212
-0.00189386
-0.00178324
-0.00167969
-0.00158268
-0.00149175
-0.00140644
-0.00132637
-0.00125117
-0.00118052
-0.00111409
-0.00105162
-0.000992837
-0.000937509
-0.000885411
-0.000836337
-0.000790099
-0.000746521
-0.000705432
-0.000666684
-0.000630139
-0.000595659
-0.000563119
-0.000532406
-0.000503412
-0.000476036
-0.000450184
-0.000425765
-0.000402697
-0.000380903
-0.000360313
-0.000340852
-0.000322458
-0.000305074
-0.000288641
-0.000273104
-0.000258413
-0.000244522
-0.000231386
-0.000218964
-0.000207215
-0.000196102
-0.00018559
-0.000175646
-0.000166239
-0.00015734
-0.000148921
-0.000140957
-0.000133422
-0.000126295
-0.000119553
-0.000113175
-0.000107142
-0.000101435
-9.6034e-05
-9.09217e-05
-8.60797e-05
-8.14899e-05
-7.71343e-05
-7.29949e-05
-6.9054e-05
-6.52941e-05
-6.16985e-05
-5.8251e-05
-5.49363e-05
-5.1743e-05
-4.86478e-05
-4.56796e-05
-4.26441e-05
-4.01111e-05
-3.52493e-05
-3.55739e-05
1.53299e-07
1.53299e-07
0.0177598
-0.0177598
-0.0281239
-0.029097
-0.0269195
-0.0237001
-0.0203368
-0.0172614
-0.0146483
-0.01252
-0.0108216
-0.00947164
-0.00839007
-0.00751006
-0.00678039
-0.00616371
-0.00563341
-0.00517064
-0.004762
-0.00439777
-0.00407072
-0.00377535
-0.0035074
-0.00326339
-0.00304047
-0.00283626
-0.00264875
-0.0024762
-0.00231709
-0.00217011
-0.00203411
-0.00190807
-0.00179108
-0.00168235
-0.00158115
-0.00148686
-0.00139891
-0.00131678
-0.00124
-0.00116817
-0.00110091
-0.00103788
-0.000978772
-0.000923297
-0.000871203
-0.000822254
-0.000776232
-0.000732945
-0.000692211
-0.000653859
-0.000617734
-0.000583699
-0.000551619
-0.000521373
-0.000492846
-0.000465933
-0.000440537
-0.000416567
-0.000393939
-0.000372569
-0.000352386
-0.000333323
-0.000315313
-0.000298293
-0.000282208
-0.000267006
-0.000252636
-0.000239051
-0.000226205
-0.000214058
-0.00020257
-0.000191706
-0.000181432
-0.000171713
-0.000162519
-0.000153824
-0.000145599
-0.00013782
-0.000130462
-0.000123503
-0.000116921
-0.000110694
-0.000104803
-9.92265e-05
-9.3945e-05
-8.8938e-05
-8.41856e-05
-7.96675e-05
-7.53639e-05
-7.12555e-05
-6.73233e-05
-6.35496e-05
-5.99172e-05
-5.64145e-05
-5.30128e-05
-4.97556e-05
-4.63886e-05
-4.36527e-05
-3.80769e-05
-3.852e-05
1.78061e-07
1.78061e-07
0.0282545
-0.0282545
-0.038741
-0.0375699
-0.0331777
-0.0280244
-0.0230972
-0.0188234
-0.0153293
-0.0125738
-0.0104408
-0.00879741
-0.0075236
-0.00652317
-0.00572378
-0.00507311
-0.00453394
-0.0040799
-0.0036922
-0.00335724
-0.00306499
-0.00280794
-0.00258031
-0.00237753
-0.00219595
-0.00203266
-0.00188521
-0.00175156
-0.00163003
-0.00151918
-0.00141777
-0.00132476
-0.00123924
-0.00116043
-0.00108764
-0.0010203
-0.000957868
-0.000899896
-0.000845982
-0.000795772
-0.000748948
-0.000705229
-0.000664362
-0.000626123
-0.00059031
-0.000556736
-0.000525238
-0.000495669
-0.00046789
-0.000441772
-0.000417206
-0.000394088
-0.000372322
-0.000351818
-0.000332495
-0.00031428
-0.000297102
-0.000280899
-0.000265609
-0.000251176
-0.000237551
-0.000224686
-0.000212534
-0.000201054
-0.000190207
-0.000179957
-0.00017027
-0.000161112
-0.000152454
-0.000144267
-0.000136526
-0.000129206
-0.000122283
-0.000115734
-0.00010954
-0.000103682
-9.81406e-05
-9.28998e-05
-8.79433e-05
-8.32558e-05
-7.88226e-05
-7.46295e-05
-7.06625e-05
-6.69079e-05
-6.33519e-05
-5.99808e-05
-5.67805e-05
-5.37374e-05
-5.08378e-05
-4.80682e-05
-4.54156e-05
-4.2868e-05
-4.04131e-05
-3.80446e-05
-3.57372e-05
-3.3541e-05
-3.12118e-05
-2.94501e-05
-2.52995e-05
-2.57519e-05
1.21961e-07
1.21961e-07
0.0370799
-0.0370799
-0.0391133
-0.0336313
-0.0272525
-0.0213215
-0.0162805
-0.0122495
-0.00917274
-0.00690402
-0.00526869
-0.00410327
-0.00327336
-0.00267717
-0.00224164
-0.0019162
-0.00166663
-0.00147002
-0.00131109
-0.0011796
-0.00106864
-0.000973489
-0.000890799
-0.000818151
-0.000753779
-0.000696355
-0.000644825
-0.000598346
-0.000556247
-0.000517975
-0.000483063
-0.000451119
-0.000421807
-0.000394841
-0.000369977
-0.000347003
-0.00032573
-0.000305992
-0.000287653
-0.000270587
-0.000254679
-0.000239832
-0.000225959
-0.000212982
-0.00020083
-0.000189438
-0.000178751
-0.000168721
-0.000159295
-0.000150431
-0.000142094
-0.000134249
-0.00012686
-0.000119897
-0.000113334
-0.000107146
-0.000101311
-9.58039e-05
-9.0605e-05
-8.5697e-05
-8.10639e-05
-7.66875e-05
-7.25517e-05
-6.86435e-05
-6.49505e-05
-6.14606e-05
-5.81611e-05
-5.50404e-05
-5.20896e-05
-4.92993e-05
-4.66601e-05
-4.4164e-05
-4.18024e-05
-3.9568e-05
-3.74543e-05
-3.54548e-05
-3.35633e-05
-3.1774e-05
-3.00817e-05
-2.84812e-05
-2.69677e-05
-2.55365e-05
-2.41828e-05
-2.29024e-05
-2.16904e-05
-2.05424e-05
-1.94535e-05
-1.84193e-05
-1.7435e-05
-1.64959e-05
-1.55974e-05
-1.47356e-05
-1.39052e-05
-1.31061e-05
-1.23219e-05
-1.15935e-05
-1.07568e-05
-1.02726e-05
-8.4833e-06
-8.8657e-06
3.21728e-08
3.21728e-08
0
0
0
0
0
0
0
0
0
0
0
0
0
0
0
0
0
0
0
0
0
0
0
0
0
0
0
0
0
0
0
0
0
0
0
0
0
0
0
0
0
0
0
0
0
0
0
0
0
0
0
0
0
0
0
0
0
0
0
0
0
0
0
0
0
0
0
0
0
0
0
0
0
0
0
0
0
0
0
0
0
0
0
0
0
0
0
0
0
0
0
0
0
0
0
0
0
0
0
0
0
0
0
0
0
0
0
0
0
0
0
0
0
0
0
0
0
0
0
0
0
0
0
0
0
0
0
0
0
0
0
0
0
0
0
0
0
0
0
0
0
0
0
0
0
0
0
0
0
0
0
0
0
0
0
0
0
0
0
0
0
0
0
0
0
0
0
0
0
0
0
0
0
0
0
0
0
0
0
0
0
0
0
0
0
0
0
0
0
0
0
0
0
0
0
0
0
0
0
0
0
0
0
0
