# vtk DataFile Version 2.0
FlowField
ASCII
DATASET STRUCTURED_GRID
DIMENSIONS 102 13 1 
POINTS 1326 double
0 0 0
0.3 0 0
0.6 0 0
0.9 0 0
1.2 0 0
1.5 0 0
1.8 0 0
2.1 0 0
2.4 0 0
2.7 0 0
3 0 0
3.3 0 0
3.6 0 0
3.9 0 0
4.2 0 0
4.5 0 0
4.8 0 0
5.1 0 0
5.4 0 0
5.7 0 0
6 0 0
6.3 0 0
6.6 0 0
6.9 0 0
7.2 0 0
7.5 0 0
7.8 0 0
8.1 0 0
8.4 0 0
8.7 0 0
9 0 0
9.3 0 0
9.6 0 0
9.9 0 0
10.2 0 0
10.5 0 0
10.8 0 0
11.1 0 0
11.4 0 0
11.7 0 0
12 0 0
12.3 0 0
12.6 0 0
12.9 0 0
13.2 0 0
13.5 0 0
13.8 0 0
14.1 0 0
14.4 0 0
14.7 0 0
15 0 0
15.3 0 0
15.6 0 0
15.9 0 0
16.2 0 0
16.5 0 0
16.8 0 0
17.1 0 0
17.4 0 0
17.7 0 0
18 0 0
18.3 0 0
18.6 0 0
18.9 0 0
19.2 0 0
19.5 0 0
19.8 0 0
20.1 0 0
20.4 0 0
20.7 0 0
21 0 0
21.3 0 0
21.6 0 0
21.9 0 0
22.2 0 0
22.5 0 0
22.8 0 0
23.1 0 0
23.4 0 0
23.7 0 0
24 0 0
24.3 0 0
24.6 0 0
24.9 0 0
25.2 0 0
25.5 0 0
25.8 0 0
26.1 0 0
26.4 0 0
26.7 0 0
27 0 0
27.3 0 0
27.6 0 0
27.9 0 0
28.2 0 0
28.5 0 0
28.8 0 0
29.1 0 0
29.4 0 0
29.7 0 0
30 0 0
30.3 0 0
0 0.1 0
0.3 0.1 0
0.6 0.1 0
0.9 0.1 0
1.2 0.1 0
1.5 0.1 0
1.8 0.1 0
2.1 0.1 0
2.4 0.1 0
2.7 0.1 0
3 0.1 0
3.3 0.1 0
3.6 0.1 0
3.9 0.1 0
4.2 0.1 0
4.5 0.1 0
4.8 0.1 0
5.1 0.1 0
5.4 0.1 0
5.7 0.1 0
6 0.1 0
6.3 0.1 0
6.6 0.1 0
6.9 0.1 0
7.2 0.1 0
7.5 0.1 0
7.8 0.1 0
8.1 0.1 0
8.4 0.1 0
8.7 0.1 0
9 0.1 0
9.3 0.1 0
9.6 0.1 0
9.9 0.1 0
10.2 0.1 0
10.5 0.1 0
10.8 0.1 0
11.1 0.1 0
11.4 0.1 0
11.7 0.1 0
12 0.1 0
12.3 0.1 0
12.6 0.1 0
12.9 0.1 0
13.2 0.1 0
13.5 0.1 0
13.8 0.1 0
14.1 0.1 0
14.4 0.1 0
14.7 0.1 0
15 0.1 0
15.3 0.1 0
15.6 0.1 0
15.9 0.1 0
16.2 0.1 0
16.5 0.1 0
16.8 0.1 0
17.1 0.1 0
17.4 0.1 0
17.7 0.1 0
18 0.1 0
18.3 0.1 0
18.6 0.1 0
18.9 0.1 0
19.2 0.1 0
19.5 0.1 0
19.8 0.1 0
20.1 0.1 0
20.4 0.1 0
20.7 0.1 0
21 0.1 0
21.3 0.1 0
21.6 0.1 0
21.9 0.1 0
22.2 0.1 0
22.5 0.1 0
22.8 0.1 0
23.1 0.1 0
23.4 0.1 0
23.7 0.1 0
24 0.1 0
24.3 0.1 0
24.6 0.1 0
24.9 0.1 0
25.2 0.1 0
25.5 0.1 0
25.8 0.1 0
26.1 0.1 0
26.4 0.1 0
26.7 0.1 0
27 0.1 0
27.3 0.1 0
27.6 0.1 0
27.9 0.1 0
28.2 0.1 0
28.5 0.1 0
28.8 0.1 0
29.1 0.1 0
29.4 0.1 0
29.7 0.1 0
30 0.1 0
30.3 0.1 0
0 0.2 0
0.3 0.2 0
0.6 0.2 0
0.9 0.2 0
1.2 0.2 0
1.5 0.2 0
1.8 0.2 0
2.1 0.2 0
2.4 0.2 0
2.7 0.2 0
3 0.2 0
3.3 0.2 0
3.6 0.2 0
3.9 0.2 0
4.2 0.2 0
4.5 0.2 0
4.8 0.2 0
5.1 0.2 0
5.4 0.2 0
5.7 0.2 0
6 0.2 0
6.3 0.2 0
6.6 0.2 0
6.9 0.2 0
7.2 0.2 0
7.5 0.2 0
7.8 0.2 0
8.1 0.2 0
8.4 0.2 0
8.7 0.2 0
9 0.2 0
9.3 0.2 0
9.6 0.2 0
9.9 0.2 0
10.2 0.2 0
10.5 0.2 0
10.8 0.2 0
11.1 0.2 0
11.4 0.2 0
11.7 0.2 0
12 0.2 0
12.3 0.2 0
12.6 0.2 0
12.9 0.2 0
13.2 0.2 0
13.5 0.2 0
13.8 0.2 0
14.1 0.2 0
14.4 0.2 0
14.7 0.2 0
15 0.2 0
15.3 0.2 0
15.6 0.2 0
15.9 0.2 0
16.2 0.2 0
16.5 0.2 0
16.8 0.2 0
17.1 0.2 0
17.4 0.2 0
17.7 0.2 0
18 0.2 0
18.3 0.2 0
18.6 0.2 0
18.9 0.2 0
19.2 0.2 0
19.5 0.2 0
19.8 0.2 0
20.1 0.2 0
20.4 0.2 0
20.7 0.2 0
21 0.2 0
21.3 0.2 0
21.6 0.2 0
21.9 0.2 0
22.2 0.2 0
22.5 0.2 0
22.8 0.2 0
23.1 0.2 0
23.4 0.2 0
23.7 0.2 0
24 0.2 0
24.3 0.2 0
24.6 0.2 0
24.9 0.2 0
25.2 0.2 0
25.5 0.2 0
25.8 0.2 0
26.1 0.2 0
26.4 0.2 0
26.7 0.2 0
27 0.2 0
27.3 0.2 0
27.6 0.2 0
27.9 0.2 0
28.2 0.2 0
28.5 0.2 0
28.8 0.2 0
29.1 0.2 0
29.4 0.2 0
29.7 0.2 0
30 0.2 0
30.3 0.2 0
0 0.3 0
0.3 0.3 0
0.6 0.3 0
0.9 0.3 0
1.2 0.3 0
1.5 0.3 0
1.8 0.3 0
2.1 0.3 0
2.4 0.3 0
2.7 0.3 0
3 0.3 0
3.3 0.3 0
3.6 0.3 0
3.9 0.3 0
4.2 0.3 0
4.5 0.3 0
4.8 0.3 0
5.1 0.3 0
5.4 0.3 0
5.7 0.3 0
6 0.3 0
6.3 0.3 0
6.6 0.3 0
6.9 0.3 0
7.2 0.3 0
7.5 0.3 0
7.8 0.3 0
8.1 0.3 0
8.4 0.3 0
8.7 0.3 0
9 0.3 0
9.3 0.3 0
9.6 0.3 0
9.9 0.3 0
10.2 0.3 0
10.5 0.3 0
10.8 0.3 0
11.1 0.3 0
11.4 0.3 0
11.7 0.3 0
12 0.3 0
12.3 0.3 0
12.6 0.3 0
12.9 0.3 0
13.2 0.3 0
13.5 0.3 0
13.8 0.3 0
14.1 0.3 0
14.4 0.3 0
14.7 0.3 0
15 0.3 0
15.3 0.3 0
15.6 0.3 0
15.9 0.3 0
16.2 0.3 0
16.5 0.3 0
16.8 0.3 0
17.1 0.3 0
17.4 0.3 0
17.7 0.3 0
18 0.3 0
18.3 0.3 0
18.6 0.3 0
18.9 0.3 0
19.2 0.3 0
19.5 0.3 0
19.8 0.3 0
20.1 0.3 0
20.4 0.3 0
20.7 0.3 0
21 0.3 0
21.3 0.3 0
21.6 0.3 0
21.9 0.3 0
22.2 0.3 0
22.5 0.3 0
22.8 0.3 0
23.1 0.3 0
23.4 0.3 0
23.7 0.3 0
24 0.3 0
24.3 0.3 0
24.6 0.3 0
24.9 0.3 0
25.2 0.3 0
25.5 0.3 0
25.8 0.3 0
26.1 0.3 0
26.4 0.3 0
26.7 0.3 0
27 0.3 0
27.3 0.3 0
27.6 0.3 0
27.9 0.3 0
28.2 0.3 0
28.5 0.3 0
28.8 0.3 0
29.1 0.3 0
29.4 0.3 0
29.7 0.3 0
30 0.3 0
30.3 0.3 0
0 0.4 0
0.3 0.4 0
0.6 0.4 0
0.9 0.4 0
1.2 0.4 0
1.5 0.4 0
1.8 0.4 0
2.1 0.4 0
2.4 0.4 0
2.7 0.4 0
3 0.4 0
3.3 0.4 0
3.6 0.4 0
3.9 0.4 0
4.2 0.4 0
4.5 0.4 0
4.8 0.4 0
5.1 0.4 0
5.4 0.4 0
5.7 0.4 0
6 0.4 0
6.3 0.4 0
6.6 0.4 0
6.9 0.4 0
7.2 0.4 0
7.5 0.4 0
7.8 0.4 0
8.1 0.4 0
8.4 0.4 0
8.7 0.4 0
9 0.4 0
9.3 0.4 0
9.6 0.4 0
9.9 0.4 0
10.2 0.4 0
10.5 0.4 0
10.8 0.4 0
11.1 0.4 0
11.4 0.4 0
11.7 0.4 0
12 0.4 0
12.3 0.4 0
12.6 0.4 0
12.9 0.4 0
13.2 0.4 0
13.5 0.4 0
13.8 0.4 0
14.1 0.4 0
14.4 0.4 0
14.7 0.4 0
15 0.4 0
15.3 0.4 0
15.6 0.4 0
15.9 0.4 0
16.2 0.4 0
16.5 0.4 0
16.8 0.4 0
17.1 0.4 0
17.4 0.4 0
17.7 0.4 0
18 0.4 0
18.3 0.4 0
18.6 0.4 0
18.9 0.4 0
19.2 0.4 0
19.5 0.4 0
19.8 0.4 0
20.1 0.4 0
20.4 0.4 0
20.7 0.4 0
21 0.4 0
21.3 0.4 0
21.6 0.4 0
21.9 0.4 0
22.2 0.4 0
22.5 0.4 0
22.8 0.4 0
23.1 0.4 0
23.4 0.4 0
23.7 0.4 0
24 0.4 0
24.3 0.4 0
24.6 0.4 0
24.9 0.4 0
25.2 0.4 0
25.5 0.4 0
25.8 0.4 0
26.1 0.4 0
26.4 0.4 0
26.7 0.4 0
27 0.4 0
27.3 0.4 0
27.6 0.4 0
27.9 0.4 0
28.2 0.4 0
28.5 0.4 0
28.8 0.4 0
29.1 0.4 0
29.4 0.4 0
29.7 0.4 0
30 0.4 0
30.3 0.4 0
0 0.5 0
0.3 0.5 0
0.6 0.5 0
0.9 0.5 0
1.2 0.5 0
1.5 0.5 0
1.8 0.5 0
2.1 0.5 0
2.4 0.5 0
2.7 0.5 0
3 0.5 0
3.3 0.5 0
3.6 0.5 0
3.9 0.5 0
4.2 0.5 0
4.5 0.5 0
4.8 0.5 0
5.1 0.5 0
5.4 0.5 0
5.7 0.5 0
6 0.5 0
6.3 0.5 0
6.6 0.5 0
6.9 0.5 0
7.2 0.5 0
7.5 0.5 0
7.8 0.5 0
8.1 0.5 0
8.4 0.5 0
8.7 0.5 0
9 0.5 0
9.3 0.5 0
9.6 0.5 0
9.9 0.5 0
10.2 0.5 0
10.5 0.5 0
10.8 0.5 0
11.1 0.5 0
11.4 0.5 0
11.7 0.5 0
12 0.5 0
12.3 0.5 0
12.6 0.5 0
12.9 0.5 0
13.2 0.5 0
13.5 0.5 0
13.8 0.5 0
14.1 0.5 0
14.4 0.5 0
14.7 0.5 0
15 0.5 0
15.3 0.5 0
15.6 0.5 0
15.9 0.5 0
16.2 0.5 0
16.5 0.5 0
16.8 0.5 0
17.1 0.5 0
17.4 0.5 0
17.7 0.5 0
18 0.5 0
18.3 0.5 0
18.6 0.5 0
18.9 0.5 0
19.2 0.5 0
19.5 0.5 0
19.8 0.5 0
20.1 0.5 0
20.4 0.5 0
20.7 0.5 0
21 0.5 0
21.3 0.5 0
21.6 0.5 0
21.9 0.5 0
22.2 0.5 0
22.5 0.5 0
22.8 0.5 0
23.1 0.5 0
23.4 0.5 0
23.7 0.5 0
24 0.5 0
24.3 0.5 0
24.6 0.5 0
24.9 0.5 0
25.2 0.5 0
25.5 0.5 0
25.8 0.5 0
26.1 0.5 0
26.4 0.5 0
26.7 0.5 0
27 0.5 0
27.3 0.5 0
27.6 0.5 0
27.9 0.5 0
28.2 0.5 0
28.5 0.5 0
28.8 0.5 0
29.1 0.5 0
29.4 0.5 0
29.7 0.5 0
30 0.5 0
30.3 0.5 0
0 0.6 0
0.3 0.6 0
0.6 0.6 0
0.9 0.6 0
1.2 0.6 0
1.5 0.6 0
1.8 0.6 0
2.1 0.6 0
2.4 0.6 0
2.7 0.6 0
3 0.6 0
3.3 0.6 0
3.6 0.6 0
3.9 0.6 0
4.2 0.6 0
4.5 0.6 0
4.8 0.6 0
5.1 0.6 0
5.4 0.6 0
5.7 0.6 0
6 0.6 0
6.3 0.6 0
6.6 0.6 0
6.9 0.6 0
7.2 0.6 0
7.5 0.6 0
7.8 0.6 0
8.1 0.6 0
8.4 0.6 0
8.7 0.6 0
9 0.6 0
9.3 0.6 0
9.6 0.6 0
9.9 0.6 0
10.2 0.6 0
10.5 0.6 0
10.8 0.6 0
11.1 0.6 0
11.4 0.6 0
11.7 0.6 0
12 0.6 0
12.3 0.6 0
12.6 0.6 0
12.9 0.6 0
13.2 0.6 0
13.5 0.6 0
13.8 0.6 0
14.1 0.6 0
14.4 0.6 0
14.7 0.6 0
15 0.6 0
15.3 0.6 0
15.6 0.6 0
15.9 0.6 0
16.2 0.6 0
16.5 0.6 0
16.8 0.6 0
17.1 0.6 0
17.4 0.6 0
17.7 0.6 0
18 0.6 0
18.3 0.6 0
18.6 0.6 0
18.9 0.6 0
19.2 0.6 0
19.5 0.6 0
19.8 0.6 0
20.1 0.6 0
20.4 0.6 0
20.7 0.6 0
21 0.6 0
21.3 0.6 0
21.6 0.6 0
21.9 0.6 0
22.2 0.6 0
22.5 0.6 0
22.8 0.6 0
23.1 0.6 0
23.4 0.6 0
23.7 0.6 0
24 0.6 0
24.3 0.6 0
24.6 0.6 0
24.9 0.6 0
25.2 0.6 0
25.5 0.6 0
25.8 0.6 0
26.1 0.6 0
26.4 0.6 0
26.7 0.6 0
27 0.6 0
27.3 0.6 0
27.6 0.6 0
27.9 0.6 0
28.2 0.6 0
28.5 0.6 0
28.8 0.6 0
29.1 0.6 0
29.4 0.6 0
29.7 0.6 0
30 0.6 0
30.3 0.6 0
0 0.7 0
0.3 0.7 0
0.6 0.7 0
0.9 0.7 0
1.2 0.7 0
1.5 0.7 0
1.8 0.7 0
2.1 0.7 0
2.4 0.7 0
2.7 0.7 0
3 0.7 0
3.3 0.7 0
3.6 0.7 0
3.9 0.7 0
4.2 0.7 0
4.5 0.7 0
4.8 0.7 0
5.1 0.7 0
5.4 0.7 0
5.7 0.7 0
6 0.7 0
6.3 0.7 0
6.6 0.7 0
6.9 0.7 0
7.2 0.7 0
7.5 0.7 0
7.8 0.7 0
8.1 0.7 0
8.4 0.7 0
8.7 0.7 0
9 0.7 0
9.3 0.7 0
9.6 0.7 0
9.9 0.7 0
10.2 0.7 0
10.5 0.7 0
10.8 0.7 0
11.1 0.7 0
11.4 0.7 0
11.7 0.7 0
12 0.7 0
12.3 0.7 0
12.6 0.7 0
12.9 0.7 0
13.2 0.7 0
13.5 0.7 0
13.8 0.7 0
14.1 0.7 0
14.4 0.7 0
14.7 0.7 0
15 0.7 0
15.3 0.7 0
15.6 0.7 0
15.9 0.7 0
16.2 0.7 0
16.5 0.7 0
16.8 0.7 0
17.1 0.7 0
17.4 0.7 0
17.7 0.7 0
18 0.7 0
18.3 0.7 0
18.6 0.7 0
18.9 0.7 0
19.2 0.7 0
19.5 0.7 0
19.8 0.7 0
20.1 0.7 0
20.4 0.7 0
20.7 0.7 0
21 0.7 0
21.3 0.7 0
21.6 0.7 0
21.9 0.7 0
22.2 0.7 0
22.5 0.7 0
22.8 0.7 0
23.1 0.7 0
23.4 0.7 0
23.7 0.7 0
24 0.7 0
24.3 0.7 0
24.6 0.7 0
24.9 0.7 0
25.2 0.7 0
25.5 0.7 0
25.8 0.7 0
26.1 0.7 0
26.4 0.7 0
26.7 0.7 0
27 0.7 0
27.3 0.7 0
27.6 0.7 0
27.9 0.7 0
28.2 0.7 0
28.5 0.7 0
28.8 0.7 0
29.1 0.7 0
29.4 0.7 0
29.7 0.7 0
30 0.7 0
30.3 0.7 0
0 0.8 0
0.3 0.8 0
0.6 0.8 0
0.9 0.8 0
1.2 0.8 0
1.5 0.8 0
1.8 0.8 0
2.1 0.8 0
2.4 0.8 0
2.7 0.8 0
3 0.8 0
3.3 0.8 0
3.6 0.8 0
3.9 0.8 0
4.2 0.8 0
4.5 0.8 0
4.8 0.8 0
5.1 0.8 0
5.4 0.8 0
5.7 0.8 0
6 0.8 0
6.3 0.8 0
6.6 0.8 0
6.9 0.8 0
7.2 0.8 0
7.5 0.8 0
7.8 0.8 0
8.1 0.8 0
8.4 0.8 0
8.7 0.8 0
9 0.8 0
9.3 0.8 0
9.6 0.8 0
9.9 0.8 0
10.2 0.8 0
10.5 0.8 0
10.8 0.8 0
11.1 0.8 0
11.4 0.8 0
11.7 0.8 0
12 0.8 0
12.3 0.8 0
12.6 0.8 0
12.9 0.8 0
13.2 0.8 0
13.5 0.8 0
13.8 0.8 0
14.1 0.8 0
14.4 0.8 0
14.7 0.8 0
15 0.8 0
15.3 0.8 0
15.6 0.8 0
15.9 0.8 0
16.2 0.8 0
16.5 0.8 0
16.8 0.8 0
17.1 0.8 0
17.4 0.8 0
17.7 0.8 0
18 0.8 0
18.3 0.8 0
18.6 0.8 0
18.9 0.8 0
19.2 0.8 0
19.5 0.8 0
19.8 0.8 0
20.1 0.8 0
20.4 0.8 0
20.7 0.8 0
21 0.8 0
21.3 0.8 0
21.6 0.8 0
21.9 0.8 0
22.2 0.8 0
22.5 0.8 0
22.8 0.8 0
23.1 0.8 0
23.4 0.8 0
23.7 0.8 0
24 0.8 0
24.3 0.8 0
24.6 0.8 0
24.9 0.8 0
25.2 0.8 0
25.5 0.8 0
25.8 0.8 0
26.1 0.8 0
26.4 0.8 0
26.7 0.8 0
27 0.8 0
27.3 0.8 0
27.6 0.8 0
27.9 0.8 0
28.2 0.8 0
28.5 0.8 0
28.8 0.8 0
29.1 0.8 0
29.4 0.8 0
29.7 0.8 0
30 0.8 0
30.3 0.8 0
0 0.9 0
0.3 0.9 0
0.6 0.9 0
0.9 0.9 0
1.2 0.9 0
1.5 0.9 0
1.8 0.9 0
2.1 0.9 0
2.4 0.9 0
2.7 0.9 0
3 0.9 0
3.3 0.9 0
3.6 0.9 0
3.9 0.9 0
4.2 0.9 0
4.5 0.9 0
4.8 0.9 0
5.1 0.9 0
5.4 0.9 0
5.7 0.9 0
6 0.9 0
6.3 0.9 0
6.6 0.9 0
6.9 0.9 0
7.2 0.9 0
7.5 0.9 0
7.8 0.9 0
8.1 0.9 0
8.4 0.9 0
8.7 0.9 0
9 0.9 0
9.3 0.9 0
9.6 0.9 0
9.9 0.9 0
10.2 0.9 0
10.5 0.9 0
10.8 0.9 0
11.1 0.9 0
11.4 0.9 0
11.7 0.9 0
12 0.9 0
12.3 0.9 0
12.6 0.9 0
12.9 0.9 0
13.2 0.9 0
13.5 0.9 0
13.8 0.9 0
14.1 0.9 0
14.4 0.9 0
14.7 0.9 0
15 0.9 0
15.3 0.9 0
15.6 0.9 0
15.9 0.9 0
16.2 0.9 0
16.5 0.9 0
16.8 0.9 0
17.1 0.9 0
17.4 0.9 0
17.7 0.9 0
18 0.9 0
18.3 0.9 0
18.6 0.9 0
18.9 0.9 0
19.2 0.9 0
19.5 0.9 0
19.8 0.9 0
20.1 0.9 0
20.4 0.9 0
20.7 0.9 0
21 0.9 0
21.3 0.9 0
21.6 0.9 0
21.9 0.9 0
22.2 0.9 0
22.5 0.9 0
22.8 0.9 0
23.1 0.9 0
23.4 0.9 0
23.7 0.9 0
24 0.9 0
24.3 0.9 0
24.6 0.9 0
24.9 0.9 0
25.2 0.9 0
25.5 0.9 0
25.8 0.9 0
26.1 0.9 0
26.4 0.9 0
26.7 0.9 0
27 0.9 0
27.3 0.9 0
27.6 0.9 0
27.9 0.9 0
28.2 0.9 0
28.5 0.9 0
28.8 0.9 0
29.1 0.9 0
29.4 0.9 0
29.7 0.9 0
30 0.9 0
30.3 0.9 0
0 1 0
0.3 1 0
0.6 1 0
0.9 1 0
1.2 1 0
1.5 1 0
1.8 1 0
2.1 1 0
2.4 1 0
2.7 1 0
3 1 0
3.3 1 0
3.6 1 0
3.9 1 0
4.2 1 0
4.5 1 0
4.8 1 0
5.1 1 0
5.4 1 0
5.7 1 0
6 1 0
6.3 1 0
6.6 1 0
6.9 1 0
7.2 1 0
7.5 1 0
7.8 1 0
8.1 1 0
8.4 1 0
8.7 1 0
9 1 0
9.3 1 0
9.6 1 0
9.9 1 0
10.2 1 0
10.5 1 0
10.8 1 0
11.1 1 0
11.4 1 0
11.7 1 0
12 1 0
12.3 1 0
12.6 1 0
12.9 1 0
13.2 1 0
13.5 1 0
13.8 1 0
14.1 1 0
14.4 1 0
14.7 1 0
15 1 0
15.3 1 0
15.6 1 0
15.9 1 0
16.2 1 0
16.5 1 0
16.8 1 0
17.1 1 0
17.4 1 0
17.7 1 0
18 1 0
18.3 1 0
18.6 1 0
18.9 1 0
19.2 1 0
19.5 1 0
19.8 1 0
20.1 1 0
20.4 1 0
20.7 1 0
21 1 0
21.3 1 0
21.6 1 0
21.9 1 0
22.2 1 0
22.5 1 0
22.8 1 0
23.1 1 0
23.4 1 0
23.7 1 0
24 1 0
24.3 1 0
24.6 1 0
24.9 1 0
25.2 1 0
25.5 1 0
25.8 1 0
26.1 1 0
26.4 1 0
26.7 1 0
27 1 0
27.3 1 0
27.6 1 0
27.9 1 0
28.2 1 0
28.5 1 0
28.8 1 0
29.1 1 0
29.4 1 0
29.7 1 0
30 1 0
30.3 1 0
0 1.1 0
0.3 1.1 0
0.6 1.1 0
0.9 1.1 0
1.2 1.1 0
1.5 1.1 0
1.8 1.1 0
2.1 1.1 0
2.4 1.1 0
2.7 1.1 0
3 1.1 0
3.3 1.1 0
3.6 1.1 0
3.9 1.1 0
4.2 1.1 0
4.5 1.1 0
4.8 1.1 0
5.1 1.1 0
5.4 1.1 0
5.7 1.1 0
6 1.1 0
6.3 1.1 0
6.6 1.1 0
6.9 1.1 0
7.2 1.1 0
7.5 1.1 0
7.8 1.1 0
8.1 1.1 0
8.4 1.1 0
8.7 1.1 0
9 1.1 0
9.3 1.1 0
9.6 1.1 0
9.9 1.1 0
10.2 1.1 0
10.5 1.1 0
10.8 1.1 0
11.1 1.1 0
11.4 1.1 0
11.7 1.1 0
12 1.1 0
12.3 1.1 0
12.6 1.1 0
12.9 1.1 0
13.2 1.1 0
13.5 1.1 0
13.8 1.1 0
14.1 1.1 0
14.4 1.1 0
14.7 1.1 0
15 1.1 0
15.3 1.1 0
15.6 1.1 0
15.9 1.1 0
16.2 1.1 0
16.5 1.1 0
16.8 1.1 0
17.1 1.1 0
17.4 1.1 0
17.7 1.1 0
18 1.1 0
18.3 1.1 0
18.6 1.1 0
18.9 1.1 0
19.2 1.1 0
19.5 1.1 0
19.8 1.1 0
20.1 1.1 0
20.4 1.1 0
20.7 1.1 0
21 1.1 0
21.3 1.1 0
21.6 1.1 0
21.9 1.1 0
22.2 1.1 0
22.5 1.1 0
22.8 1.1 0
23.1 1.1 0
23.4 1.1 0
23.7 1.1 0
24 1.1 0
24.3 1.1 0
24.6 1.1 0
24.9 1.1 0
25.2 1.1 0
25.5 1.1 0
25.8 1.1 0
26.1 1.1 0
26.4 1.1 0
26.7 1.1 0
27 1.1 0
27.3 1.1 0
27.6 1.1 0
27.9 1.1 0
28.2 1.1 0
28.5 1.1 0
28.8 1.1 0
29.1 1.1 0
29.4 1.1 0
29.7 1.1 0
30 1.1 0
30.3 1.1 0
0 1.2 0
0.3 1.2 0
0.6 1.2 0
0.9 1.2 0
1.2 1.2 0
1.5 1.2 0
1.8 1.2 0
2.1 1.2 0
2.4 1.2 0
2.7 1.2 0
3 1.2 0
3.3 1.2 0
3.6 1.2 0
3.9 1.2 0
4.2 1.2 0
4.5 1.2 0
4.8 1.2 0
5.1 1.2 0
5.4 1.2 0
5.7 1.2 0
6 1.2 0
6.3 1.2 0
6.6 1.2 0
6.9 1.2 0
7.2 1.2 0
7.5 1.2 0
7.8 1.2 0
8.1 1.2 0
8.4 1.2 0
8.7 1.2 0
9 1.2 0
9.3 1.2 0
9.6 1.2 0
9.9 1.2 0
10.2 1.2 0
10.5 1.2 0
10.8 1.2 0
11.1 1.2 0
11.4 1.2 0
11.7 1.2 0
12 1.2 0
12.3 1.2 0
12.6 1.2 0
12.9 1.2 0
13.2 1.2 0
13.5 1.2 0
13.8 1.2 0
14.1 1.2 0
14.4 1.2 0
14.7 1.2 0
15 1.2 0
15.3 1.2 0
15.6 1.2 0
15.9 1.2 0
16.2 1.2 0
16.5 1.2 0
16.8 1.2 0
17.1 1.2 0
17.4 1.2 0
17.7 1.2 0
18 1.2 0
18.3 1.2 0
18.6 1.2 0
18.9 1.2 0
19.2 1.2 0
19.5 1.2 0
19.8 1.2 0
20.1 1.2 0
20.4 1.2 0
20.7 1.2 0
21 1.2 0
21.3 1.2 0
21.6 1.2 0
21.9 1.2 0
22.2 1.2 0
22.5 1.2 0
22.8 1.2 0
23.1 1.2 0
23.4 1.2 0
23.7 1.2 0
24 1.2 0
24.3 1.2 0
24.6 1.2 0
24.9 1.2 0
25.2 1.2 0
25.5 1.2 0
25.8 1.2 0
26.1 1.2 0
26.4 1.2 0
26.7 1.2 0
27 1.2 0
27.3 1.2 0
27.6 1.2 0
27.9 1.2 0
28.2 1.2 0
28.5 1.2 0
28.8 1.2 0
29.1 1.2 0
29.4 1.2 0
29.7 1.2 0
30 1.2 0
30.3 1.2 0

POINT_DATA 1326

SCALARS v double
LOOKUP_TABLE default
0
0
0
0
0
0
0
0
0
0
0
0
0
0
0
0
0
0
0
0
0
0
0
0
0
0
0
0
0
0
0
0
0
0
0
0
0
0
0
0
0
0
0
0
0
0
0
0
0
0
0
0
0
0
0
0
0
0
0
0
0
0
0
0
0
0
0
0
0
0
0
0
0
0
0
0
0
0
0
0
0
0
0
0
0
0
0
0
0
0
0
0
0
0
0
0
0
0
0
0
0
0
-0.0370592
0.0370592
0.039156
0.0336821
0.0265013
0.0186085
0.0112811
0.00579307
0.00248646
0.000866362
0.00022231
2.14187e-05
-1.83858e-05
-1.27891e-05
-5.24891e-06
-1.66616e-06
-4.29173e-07
-8.23848e-08
-2.82056e-09
1.29169e-08
1.52525e-08
1.47492e-08
1.38442e-08
1.29609e-08
1.20949e-08
1.12144e-08
1.03068e-08
9.36923e-09
8.40063e-09
7.40174e-09
6.37168e-09
5.3119e-09
4.22319e-09
3.10653e-09
1.96319e-09
7.95694e-10
-3.7749e-10
-1.54892e-09
-2.73728e-09
-3.94309e-09
-5.16521e-09
-6.40201e-09
-7.65184e-09
-8.91349e-09
-1.01861e-08
-1.14689e-08
-1.27606e-08
-1.40606e-08
-1.53673e-08
-1.66792e-08
-1.79962e-08
-1.93186e-08
-2.06463e-08
-2.19775e-08
-2.33079e-08
-2.46327e-08
-2.59492e-08
-2.72574e-08
-2.8558e-08
-2.98514e-08
-3.11364e-08
-3.24116e-08
-3.36752e-08
-3.49261e-08
-3.61633e-08
-3.73855e-08
-3.85917e-08
-3.97805e-08
-4.09506e-08
-4.21008e-08
-4.32297e-08
-4.43361e-08
-4.54188e-08
-4.64766e-08
-4.75083e-08
-4.85128e-08
-4.94889e-08
-5.04356e-08
-5.13517e-08
-5.2236e-08
-5.30876e-08
-5.39059e-08
-5.46901e-08
-5.54401e-08
-5.61566e-08
-5.68426e-08
-5.75071e-08
-5.8177e-08
-5.89361e-08
-6.0065e-08
-6.2485e-08
-6.97639e-08
-9.16666e-08
-1.8216e-07
-3.98279e-07
-1.69085e-06
-3.29771e-06
-2.13387e-05
-3.11353e-05
-0.000233975
-0.000310339
-0.000310339
-0.0282187
0.0282187
0.038823
0.0375929
0.0317155
0.0232032
0.0143702
0.00739074
0.00306559
0.00093698
0.000121083
-8.98522e-05
-8.80198e-05
-4.92029e-05
-2.17284e-05
-8.27151e-06
-2.81795e-06
-8.74401e-07
-2.47159e-07
-6.11228e-08
-1.04996e-08
1.83774e-09
4.33245e-09
4.41383e-09
3.90218e-09
3.23562e-09
2.51542e-09
1.76399e-09
9.8585e-10
1.82688e-10
-6.41239e-10
-1.48907e-09
-2.36193e-09
-3.25866e-09
-4.17786e-09
-5.11765e-09
-6.07886e-09
-7.06136e-09
-8.06128e-09
-9.07789e-09
-1.01099e-08
-1.11554e-08
-1.22124e-08
-1.32797e-08
-1.43572e-08
-1.54445e-08
-1.65411e-08
-1.76465e-08
-1.8759e-08
-1.98767e-08
-2.09999e-08
-2.21293e-08
-2.32646e-08
-2.44026e-08
-2.55374e-08
-2.66628e-08
-2.77767e-08
-2.88817e-08
-2.99817e-08
-3.10789e-08
-3.21727e-08
-3.32613e-08
-3.43426e-08
-3.54153e-08
-3.64785e-08
-3.75313e-08
-3.85725e-08
-3.9601e-08
-4.06151e-08
-4.16135e-08
-4.25951e-08
-4.35585e-08
-4.45028e-08
-4.54268e-08
-4.63296e-08
-4.72101e-08
-4.80675e-08
-4.89006e-08
-4.97084e-08
-5.04899e-08
-5.12444e-08
-5.19716e-08
-5.26712e-08
-5.33439e-08
-5.39916e-08
-5.462e-08
-5.52445e-08
-5.59084e-08
-5.67416e-08
-5.81687e-08
-6.15485e-08
-7.22274e-08
-1.03949e-07
-2.39131e-07
-5.44307e-07
-2.47934e-06
-4.61362e-06
-3.17729e-05
-4.02311e-05
-0.000381129
-0.000496183
-0.000496183
-0.0177224
0.0177224
0.0281925
0.0290956
0.0254998
0.0191294
0.0120883
0.00635605
0.00272356
0.000889682
0.000161419
-4.38203e-05
-6.1366e-05
-3.7612e-05
-1.75453e-05
-6.96107e-06
-2.45324e-06
-7.82275e-07
-2.24655e-07
-5.43677e-08
-6.75571e-09
5.23416e-09
7.70722e-09
7.78955e-09
7.29392e-09
6.65013e-09
5.95533e-09
5.23063e-09
4.48032e-09
3.7043e-09
2.9004e-09
2.06795e-09
1.20672e-09
3.1778e-10
-5.95526e-10
-1.53179e-09
-2.49112e-09
-3.47221e-09
-4.47186e-09
-5.48883e-09
-6.52161e-09
-7.56816e-09
-8.62629e-09
-9.69469e-09
-1.07731e-08
-1.18614e-08
-1.29595e-08
-1.40667e-08
-1.5181e-08
-1.63006e-08
-1.7425e-08
-1.85545e-08
-1.96882e-08
-2.08228e-08
-2.19527e-08
-2.30728e-08
-2.41821e-08
-2.52834e-08
-2.63805e-08
-2.74755e-08
-2.85679e-08
-2.96558e-08
-3.07373e-08
-3.1811e-08
-3.28761e-08
-3.39316e-08
-3.49763e-08
-3.60089e-08
-3.70277e-08
-3.80313e-08
-3.90184e-08
-3.99878e-08
-4.09384e-08
-4.18691e-08
-4.2779e-08
-4.3667e-08
-4.45323e-08
-4.53738e-08
-4.61902e-08
-4.69809e-08
-4.7745e-08
-4.84823e-08
-4.91928e-08
-4.98775e-08
-5.05389e-08
-5.1184e-08
-5.18302e-08
-5.25244e-08
-5.34004e-08
-5.4874e-08
-5.8283e-08
-6.85305e-08
-9.96671e-08
-2.23551e-07
-5.35812e-07
-2.24425e-06
-4.78899e-06
-2.7948e-05
-4.44419e-05
-0.000328505
-0.00044062
-0.00044062
-0.00963583
0.00963583
0.0165494
0.0176018
0.0157282
0.0120083
0.00775405
0.00421263
0.00191181
0.000705871
0.00019342
2.36538e-05
-1.33035e-05
-1.23954e-05
-6.42071e-06
-2.61051e-06
-9.0157e-07
-2.6692e-07
-6.08695e-08
-1.26993e-09
1.38419e-08
1.68573e-08
1.69125e-08
1.63332e-08
1.56237e-08
1.48742e-08
1.40971e-08
1.32937e-08
1.24639e-08
1.16063e-08
1.07179e-08
9.79695e-09
8.84248e-09
7.85535e-09
6.83748e-09
5.79161e-09
4.71967e-09
3.62388e-09
2.50726e-09
1.37151e-09
2.18426e-10
-9.49422e-10
-2.12994e-09
-3.32162e-09
-4.5239e-09
-5.7367e-09
-6.9598e-09
-8.19221e-09
-9.43186e-09
-1.06767e-08
-1.19256e-08
-1.31778e-08
-1.44321e-08
-1.56858e-08
-1.69355e-08
-1.81782e-08
-1.94137e-08
-2.06435e-08
-2.18689e-08
-2.30902e-08
-2.43062e-08
-2.55151e-08
-2.67155e-08
-2.79064e-08
-2.90868e-08
-3.0256e-08
-3.14124e-08
-3.25547e-08
-3.36811e-08
-3.47903e-08
-3.58809e-08
-3.69516e-08
-3.80013e-08
-3.90289e-08
-4.00333e-08
-4.10134e-08
-4.19681e-08
-4.28964e-08
-4.37971e-08
-4.46691e-08
-4.55118e-08
-4.63249e-08
-4.71084e-08
-4.78631e-08
-4.8592e-08
-4.93021e-08
-5.00102e-08
-5.07579e-08
-5.1655e-08
-5.30128e-08
-5.58131e-08
-6.3307e-08
-8.6034e-08
-1.6862e-07
-4.03901e-07
-1.49904e-06
-3.64517e-06
-1.80093e-05
-3.52239e-05
-0.000203167
-0.00028121
-0.00028121
-0.00305532
0.00305532
0.0054298
0.00584408
0.00526434
0.00405681
0.00265447
0.00147203
0.000691458
0.000272471
8.69934e-05
2.01495e-05
1.64942e-06
-1.36155e-06
-9.64196e-07
-3.95329e-07
-1.11391e-07
-8.53337e-09
2.13167e-08
2.79627e-08
2.84801e-08
2.77422e-08
2.68582e-08
2.6003e-08
2.516e-08
2.43034e-08
2.34217e-08
2.25119e-08
2.15732e-08
2.06036e-08
1.95997e-08
1.85581e-08
1.74774e-08
1.63582e-08
1.5203e-08
1.40154e-08
1.27984e-08
1.15551e-08
1.02886e-08
9.00114e-09
7.69443e-09
6.37067e-09
5.03248e-09
3.68193e-09
2.31997e-09
9.46751e-10
-4.37386e-10
-1.83109e-09
-3.23213e-09
-4.63819e-09
-6.04746e-09
-7.45826e-09
-8.86894e-09
-1.02781e-08
-1.16845e-08
-1.30878e-08
-1.44889e-08
-1.58872e-08
-1.72807e-08
-1.86671e-08
-2.00442e-08
-2.14105e-08
-2.27651e-08
-2.41074e-08
-2.54369e-08
-2.67523e-08
-2.80524e-08
-2.93353e-08
-3.05997e-08
-3.18438e-08
-3.30665e-08
-3.42664e-08
-3.54424e-08
-3.65932e-08
-3.77176e-08
-3.88144e-08
-3.98825e-08
-4.09206e-08
-4.19275e-08
-4.29021e-08
-4.38437e-08
-4.47516e-08
-4.5626e-08
-4.64676e-08
-4.72791e-08
-4.8067e-08
-4.88457e-08
-4.96462e-08
-5.05373e-08
-5.16761e-08
-5.34635e-08
-5.70188e-08
-6.59166e-08
-9.47219e-08
-1.81402e-07
-5.52352e-07
-1.38709e-06
-6.18091e-06
-1.3344e-05
-6.75775e-05
-9.51843e-05
-9.51843e-05
0.00305527
-0.00305527
-0.0054297
-0.00584397
-0.00526426
-0.00405677
-0.00265446
-0.00147206
-0.000691526
-0.000272565
-8.70864e-05
-2.02205e-05
-1.68783e-06
1.35822e-06
9.9084e-07
4.42872e-07
1.71e-07
7.38792e-08
4.61755e-08
3.9665e-08
3.81365e-08
3.7386e-08
3.66161e-08
3.57655e-08
3.48578e-08
3.39071e-08
3.29199e-08
3.18992e-08
3.08466e-08
2.97601e-08
2.86356e-08
2.74682e-08
2.62557e-08
2.49987e-08
2.37004e-08
2.23652e-08
2.09972e-08
1.96003e-08
1.81779e-08
1.67324e-08
1.52657e-08
1.37801e-08
1.22785e-08
1.07634e-08
9.23614e-09
7.6969e-09
6.14598e-09
4.58504e-09
3.01668e-09
1.44348e-09
-1.32063e-10
-1.70745e-09
-3.28058e-09
-4.85112e-09
-6.4205e-09
-7.99072e-09
-9.56393e-09
-1.11377e-08
-1.27061e-08
-1.42644e-08
-1.5809e-08
-1.73388e-08
-1.88535e-08
-2.03531e-08
-2.1837e-08
-2.33043e-08
-2.47532e-08
-2.61821e-08
-2.75892e-08
-2.89732e-08
-3.03327e-08
-3.16664e-08
-3.2973e-08
-3.42512e-08
-3.54998e-08
-3.67174e-08
-3.79026e-08
-3.90542e-08
-4.01708e-08
-4.12514e-08
-4.22948e-08
-4.33006e-08
-4.42684e-08
-4.5199e-08
-4.60948e-08
-4.6961e-08
-4.78086e-08
-4.8656e-08
-4.95242e-08
-5.04023e-08
-5.10359e-08
-5.0314e-08
-4.34634e-08
-1.50162e-08
7.42896e-08
4.50012e-07
1.29043e-06
6.08889e-06
1.32529e-05
6.74844e-05
9.5075e-05
9.5075e-05
0.00963578
-0.00963578
-0.0165493
-0.0176017
-0.0157282
-0.0120083
-0.00775408
-0.00421269
-0.00191189
-0.000705956
-0.000193493
-2.37022e-05
1.32838e-05
1.24052e-05
6.45553e-06
2.66263e-06
9.63481e-07
3.33289e-07
1.28784e-07
6.9031e-08
5.27658e-08
4.82143e-08
4.64901e-08
4.53606e-08
4.43175e-08
4.32569e-08
4.21613e-08
4.10305e-08
3.98657e-08
3.8665e-08
3.74228e-08
3.61333e-08
3.4793e-08
3.34026e-08
3.19661e-08
3.04885e-08
2.8975e-08
2.74302e-08
2.58579e-08
2.42606e-08
2.26403e-08
2.09992e-08
1.93407e-08
1.76677e-08
1.59821e-08
1.42837e-08
1.2573e-08
1.08518e-08
9.12314e-09
7.38989e-09
5.65517e-09
3.92248e-09
2.19437e-09
4.70142e-10
-1.25485e-09
-2.98455e-09
-4.72263e-09
-6.46469e-09
-8.20089e-09
-9.92394e-09
-1.16292e-08
-1.33157e-08
-1.49839e-08
-1.66344e-08
-1.82667e-08
-1.98797e-08
-2.14715e-08
-2.30404e-08
-2.45846e-08
-2.61028e-08
-2.75934e-08
-2.90553e-08
-3.04871e-08
-3.18874e-08
-3.32549e-08
-3.45879e-08
-3.58852e-08
-3.71453e-08
-3.83667e-08
-3.95482e-08
-4.06888e-08
-4.17876e-08
-4.28442e-08
-4.38591e-08
-4.4834e-08
-4.57731e-08
-4.66834e-08
-4.75711e-08
-4.84143e-08
-4.90544e-08
-4.8676e-08
-4.41534e-08
-2.36888e-08
5.83858e-08
2.96338e-07
1.39633e-06
3.54828e-06
1.79173e-05
3.51328e-05
0.000203074
0.000281101
0.000281101
0.0177223
-0.0177223
-0.0281924
-0.0290954
-0.0254997
-0.0191294
-0.0120884
-0.00635615
-0.00272365
-0.000889747
-0.000161453
4.3814e-05
6.13804e-05
3.76453e-05
1.75945e-05
7.02107e-06
2.51899e-06
8.50207e-07
2.93092e-07
1.2222e-07
7.3178e-08
5.95017e-08
5.53378e-08
5.35411e-08
5.22721e-08
5.10877e-08
4.98896e-08
4.86597e-08
4.73964e-08
4.60971e-08
4.47556e-08
4.33648e-08
4.19208e-08
4.04242e-08
3.88791e-08
3.72911e-08
3.56657e-08
3.40078e-08
3.23213e-08
3.06088e-08
2.88721e-08
2.71134e-08
2.53363e-08
2.35444e-08
2.17395e-08
1.99218e-08
1.80912e-08
1.62501e-08
1.44018e-08
1.25491e-08
1.06956e-08
8.84568e-09
7.00263e-09
5.16558e-09
3.32883e-09
1.48692e-09
-3.69224e-10
-2.23724e-09
-4.0996e-09
-5.94707e-09
-7.77399e-09
-9.57941e-09
-1.13644e-08
-1.31298e-08
-1.48752e-08
-1.65991e-08
-1.82998e-08
-1.99752e-08
-2.16235e-08
-2.32433e-08
-2.48333e-08
-2.6392e-08
-2.79182e-08
-2.94102e-08
-3.08667e-08
-3.2286e-08
-3.36666e-08
-3.50071e-08
-3.63058e-08
-3.75616e-08
-3.87731e-08
-3.99395e-08
-4.10601e-08
-4.2135e-08
-4.31653e-08
-4.41539e-08
-4.51043e-08
-4.60137e-08
-4.6832e-08
-4.73091e-08
-4.63279e-08
-3.93733e-08
-1.12655e-08
1.11697e-07
4.26625e-07
2.13989e-06
4.69054e-06
2.78547e-05
4.43496e-05
0.000328412
0.000440511
0.000440511
0.0282186
-0.0282186
-0.0388228
-0.0375928
-0.0317155
-0.0232033
-0.0143704
-0.00739086
-0.00306567
-0.00093701
-0.000121066
8.98977e-05
8.80736e-05
4.92619e-05
2.17926e-05
8.33919e-06
2.887e-06
9.43192e-07
3.15335e-07
1.28311e-07
7.60491e-08
6.18252e-08
5.75684e-08
5.57285e-08
5.44128e-08
5.31779e-08
5.19285e-08
5.06487e-08
4.93381e-08
4.79958e-08
4.6617e-08
4.5196e-08
4.37292e-08
4.22172e-08
4.06634e-08
3.90722e-08
3.74478e-08
3.57942e-08
3.41146e-08
3.24112e-08
3.06853e-08
2.89386e-08
2.71744e-08
2.5396e-08
2.36055e-08
2.1803e-08
1.99885e-08
1.8164e-08
1.63329e-08
1.44976e-08
1.26612e-08
1.08284e-08
9.00322e-09
7.18595e-09
5.37186e-09
3.55905e-09
1.73776e-09
-9.63747e-11
-1.94586e-09
-3.78571e-09
-5.60661e-09
-7.40708e-09
-9.18771e-09
-1.09488e-08
-1.26898e-08
-1.4409e-08
-1.61045e-08
-1.77743e-08
-1.94166e-08
-2.10298e-08
-2.26125e-08
-2.41633e-08
-2.56807e-08
-2.71633e-08
-2.86094e-08
-3.00176e-08
-3.13864e-08
-3.2714e-08
-3.39993e-08
-3.52406e-08
-3.6437e-08
-3.75872e-08
-3.86904e-08
-3.97465e-08
-4.07557e-08
-4.17197e-08
-4.26395e-08
-4.35087e-08
-4.42738e-08
-4.46853e-08
-4.37404e-08
-3.68531e-08
-1.04878e-08
1.22837e-07
4.30243e-07
2.36953e-06
4.5092e-06
3.16735e-05
4.01329e-05
0.00038103
0.000496073
0.000496073
0.0370591
-0.0370591
-0.0391559
-0.0336819
-0.0265013
-0.0186085
-0.0112812
-0.00579312
-0.00248647
-0.000866332
-0.000222253
-2.13259e-05
1.84713e-05
1.2866e-05
5.32198e-06
1.73746e-06
4.9909e-07
1.50516e-07
6.80861e-08
5.15927e-08
4.85073e-08
4.74471e-08
4.64838e-08
4.54279e-08
4.4305e-08
4.31365e-08
4.19316e-08
4.06958e-08
3.94334e-08
3.81468e-08
3.68353e-08
3.54975e-08
3.41329e-08
3.27423e-08
3.13274e-08
2.98901e-08
2.84324e-08
2.69561e-08
2.54629e-08
2.39541e-08
2.24304e-08
2.08927e-08
1.93427e-08
1.77827e-08
1.62141e-08
1.46373e-08
1.30526e-08
1.14613e-08
9.86541e-09
8.26659e-09
6.66628e-09
5.06758e-09
3.47358e-09
1.88643e-09
2.96862e-10
-1.33958e-09
-2.99284e-09
-4.64733e-09
-6.29653e-09
-7.93678e-09
-9.56414e-09
-1.11767e-08
-1.27734e-08
-1.43532e-08
-1.5915e-08
-1.74569e-08
-1.89774e-08
-2.04745e-08
-2.19465e-08
-2.33919e-08
-2.48091e-08
-2.61967e-08
-2.75531e-08
-2.88769e-08
-3.01667e-08
-3.1421e-08
-3.26385e-08
-3.38177e-08
-3.49574e-08
-3.60562e-08
-3.7113e-08
-3.81268e-08
-3.90965e-08
-4.00215e-08
-4.09016e-08
-4.17369e-08
-4.25273e-08
-4.3268e-08
-4.39306e-08
-4.43711e-08
-4.41077e-08
-4.02889e-08
-2.84641e-08
5.90534e-08
2.7615e-07
1.57186e-06
3.18268e-06
2.12274e-05
3.10257e-05
0.000233865
0.000310227
0.000310227
0
0
0
0
0
0
0
0
0
0
0
0
0
0
0
0
0
0
0
0
0
0
0
0
0
0
0
0
0
0
0
0
0
0
0
0
0
0
0
0
0
0
0
0
0
0
0
0
0
0
0
0
0
0
0
0
0
0
0
0
0
0
0
0
0
0
0
0
0
0
0
0
0
0
0
0
0
0
0
0
0
0
0
0
0
0
0
0
0
0
0
0
0
0
0
0
0
0
0
0
0
0
0
0
0
0
0
0
0
0
0
0
0
0
0
0
0
0
0
0
0
0
0
0
0
0
0
0
0
0
0
0
0
0
0
0
0
0
0
0
0
0
0
0
0
0
0
0
0
0
0
0
0
0
0
0
0
0
0
0
0
0
0
0
0
0
0
0
0
0
0
0
0
0
0
0
0
0
0
0
0
0
0
0
0
0
0
0
0
0
0
0
0
0
0
0
0
0
0
0
0
0
0
0
