# vtk DataFile Version 2.0
FlowField
ASCII
DATASET STRUCTURED_GRID
DIMENSIONS 102 1 12 
POINTS 1224 double
0 0 0
0.4 0 0
0.8 0 0
1.2 0 0
1.6 0 0
2 0 0
2.4 0 0
2.8 0 0
3.2 0 0
3.6 0 0
4 0 0
4.4 0 0
4.8 0 0
5.2 0 0
5.6 0 0
6 0 0
6.4 0 0
6.8 0 0
7.2 0 0
7.6 0 0
8 0 0
8.4 0 0
8.8 0 0
9.2 0 0
9.6 0 0
10 0 0
10.4 0 0
10.8 0 0
11.2 0 0
11.6 0 0
12 0 0
12.4 0 0
12.8 0 0
13.2 0 0
13.6 0 0
14 0 0
14.4 0 0
14.8 0 0
15.2 0 0
15.6 0 0
16 0 0
16.4 0 0
16.8 0 0
17.2 0 0
17.6 0 0
18 0 0
18.4 0 0
18.8 0 0
19.2 0 0
19.6 0 0
20 0 0
20.4 0 0
20.8 0 0
21.2 0 0
21.6 0 0
22 0 0
22.4 0 0
22.8 0 0
23.2 0 0
23.6 0 0
24 0 0
24.4 0 0
24.8 0 0
25.2 0 0
25.6 0 0
26 0 0
26.4 0 0
26.8 0 0
27.2 0 0
27.6 0 0
28 0 0
28.4 0 0
28.8 0 0
29.2 0 0
29.6 0 0
30 0 0
30.4 0 0
30.8 0 0
31.2 0 0
31.6 0 0
32 0 0
32.4 0 0
32.8 0 0
33.2 0 0
33.6 0 0
34 0 0
34.4 0 0
34.8 0 0
35.2 0 0
35.6 0 0
36 0 0
36.4 0 0
36.8 0 0
37.2 0 0
37.6 0 0
38 0 0
38.4 0 0
38.8 0 0
39.2 0 0
39.6 0 0
40 0 0
40.4 0 0
0 0.1 0
0.4 0.1 0
0.8 0.1 0
1.2 0.1 0
1.6 0.1 0
2 0.1 0
2.4 0.1 0
2.8 0.1 0
3.2 0.1 0
3.6 0.1 0
4 0.1 0
4.4 0.1 0
4.8 0.1 0
5.2 0.1 0
5.6 0.1 0
6 0.1 0
6.4 0.1 0
6.8 0.1 0
7.2 0.1 0
7.6 0.1 0
8 0.1 0
8.4 0.1 0
8.8 0.1 0
9.2 0.1 0
9.6 0.1 0
10 0.1 0
10.4 0.1 0
10.8 0.1 0
11.2 0.1 0
11.6 0.1 0
12 0.1 0
12.4 0.1 0
12.8 0.1 0
13.2 0.1 0
13.6 0.1 0
14 0.1 0
14.4 0.1 0
14.8 0.1 0
15.2 0.1 0
15.6 0.1 0
16 0.1 0
16.4 0.1 0
16.8 0.1 0
17.2 0.1 0
17.6 0.1 0
18 0.1 0
18.4 0.1 0
18.8 0.1 0
19.2 0.1 0
19.6 0.1 0
20 0.1 0
20.4 0.1 0
20.8 0.1 0
21.2 0.1 0
21.6 0.1 0
22 0.1 0
22.4 0.1 0
22.8 0.1 0
23.2 0.1 0
23.6 0.1 0
24 0.1 0
24.4 0.1 0
24.8 0.1 0
25.2 0.1 0
25.6 0.1 0
26 0.1 0
26.4 0.1 0
26.8 0.1 0
27.2 0.1 0
27.6 0.1 0
28 0.1 0
28.4 0.1 0
28.8 0.1 0
29.2 0.1 0
29.6 0.1 0
30 0.1 0
30.4 0.1 0
30.8 0.1 0
31.2 0.1 0
31.6 0.1 0
32 0.1 0
32.4 0.1 0
32.8 0.1 0
33.2 0.1 0
33.6 0.1 0
34 0.1 0
34.4 0.1 0
34.8 0.1 0
35.2 0.1 0
35.6 0.1 0
36 0.1 0
36.4 0.1 0
36.8 0.1 0
37.2 0.1 0
37.6 0.1 0
38 0.1 0
38.4 0.1 0
38.8 0.1 0
39.2 0.1 0
39.6 0.1 0
40 0.1 0
40.4 0.1 0
0 0.2 0
0.4 0.2 0
0.8 0.2 0
1.2 0.2 0
1.6 0.2 0
2 0.2 0
2.4 0.2 0
2.8 0.2 0
3.2 0.2 0
3.6 0.2 0
4 0.2 0
4.4 0.2 0
4.8 0.2 0
5.2 0.2 0
5.6 0.2 0
6 0.2 0
6.4 0.2 0
6.8 0.2 0
7.2 0.2 0
7.6 0.2 0
8 0.2 0
8.4 0.2 0
8.8 0.2 0
9.2 0.2 0
9.6 0.2 0
10 0.2 0
10.4 0.2 0
10.8 0.2 0
11.2 0.2 0
11.6 0.2 0
12 0.2 0
12.4 0.2 0
12.8 0.2 0
13.2 0.2 0
13.6 0.2 0
14 0.2 0
14.4 0.2 0
14.8 0.2 0
15.2 0.2 0
15.6 0.2 0
16 0.2 0
16.4 0.2 0
16.8 0.2 0
17.2 0.2 0
17.6 0.2 0
18 0.2 0
18.4 0.2 0
18.8 0.2 0
19.2 0.2 0
19.6 0.2 0
20 0.2 0
20.4 0.2 0
20.8 0.2 0
21.2 0.2 0
21.6 0.2 0
22 0.2 0
22.4 0.2 0
22.8 0.2 0
23.2 0.2 0
23.6 0.2 0
24 0.2 0
24.4 0.2 0
24.8 0.2 0
25.2 0.2 0
25.6 0.2 0
26 0.2 0
26.4 0.2 0
26.8 0.2 0
27.2 0.2 0
27.6 0.2 0
28 0.2 0
28.4 0.2 0
28.8 0.2 0
29.2 0.2 0
29.6 0.2 0
30 0.2 0
30.4 0.2 0
30.8 0.2 0
31.2 0.2 0
31.6 0.2 0
32 0.2 0
32.4 0.2 0
32.8 0.2 0
33.2 0.2 0
33.6 0.2 0
34 0.2 0
34.4 0.2 0
34.8 0.2 0
35.2 0.2 0
35.6 0.2 0
36 0.2 0
36.4 0.2 0
36.8 0.2 0
37.2 0.2 0
37.6 0.2 0
38 0.2 0
38.4 0.2 0
38.8 0.2 0
39.2 0.2 0
39.6 0.2 0
40 0.2 0
40.4 0.2 0
0 0.3 0
0.4 0.3 0
0.8 0.3 0
1.2 0.3 0
1.6 0.3 0
2 0.3 0
2.4 0.3 0
2.8 0.3 0
3.2 0.3 0
3.6 0.3 0
4 0.3 0
4.4 0.3 0
4.8 0.3 0
5.2 0.3 0
5.6 0.3 0
6 0.3 0
6.4 0.3 0
6.8 0.3 0
7.2 0.3 0
7.6 0.3 0
8 0.3 0
8.4 0.3 0
8.8 0.3 0
9.2 0.3 0
9.6 0.3 0
10 0.3 0
10.4 0.3 0
10.8 0.3 0
11.2 0.3 0
11.6 0.3 0
12 0.3 0
12.4 0.3 0
12.8 0.3 0
13.2 0.3 0
13.6 0.3 0
14 0.3 0
14.4 0.3 0
14.8 0.3 0
15.2 0.3 0
15.6 0.3 0
16 0.3 0
16.4 0.3 0
16.8 0.3 0
17.2 0.3 0
17.6 0.3 0
18 0.3 0
18.4 0.3 0
18.8 0.3 0
19.2 0.3 0
19.6 0.3 0
20 0.3 0
20.4 0.3 0
20.8 0.3 0
21.2 0.3 0
21.6 0.3 0
22 0.3 0
22.4 0.3 0
22.8 0.3 0
23.2 0.3 0
23.6 0.3 0
24 0.3 0
24.4 0.3 0
24.8 0.3 0
25.2 0.3 0
25.6 0.3 0
26 0.3 0
26.4 0.3 0
26.8 0.3 0
27.2 0.3 0
27.6 0.3 0
28 0.3 0
28.4 0.3 0
28.8 0.3 0
29.2 0.3 0
29.6 0.3 0
30 0.3 0
30.4 0.3 0
30.8 0.3 0
31.2 0.3 0
31.6 0.3 0
32 0.3 0
32.4 0.3 0
32.8 0.3 0
33.2 0.3 0
33.6 0.3 0
34 0.3 0
34.4 0.3 0
34.8 0.3 0
35.2 0.3 0
35.6 0.3 0
36 0.3 0
36.4 0.3 0
36.8 0.3 0
37.2 0.3 0
37.6 0.3 0
38 0.3 0
38.4 0.3 0
38.8 0.3 0
39.2 0.3 0
39.6 0.3 0
40 0.3 0
40.4 0.3 0
0 0.4 0
0.4 0.4 0
0.8 0.4 0
1.2 0.4 0
1.6 0.4 0
2 0.4 0
2.4 0.4 0
2.8 0.4 0
3.2 0.4 0
3.6 0.4 0
4 0.4 0
4.4 0.4 0
4.8 0.4 0
5.2 0.4 0
5.6 0.4 0
6 0.4 0
6.4 0.4 0
6.8 0.4 0
7.2 0.4 0
7.6 0.4 0
8 0.4 0
8.4 0.4 0
8.8 0.4 0
9.2 0.4 0
9.6 0.4 0
10 0.4 0
10.4 0.4 0
10.8 0.4 0
11.2 0.4 0
11.6 0.4 0
12 0.4 0
12.4 0.4 0
12.8 0.4 0
13.2 0.4 0
13.6 0.4 0
14 0.4 0
14.4 0.4 0
14.8 0.4 0
15.2 0.4 0
15.6 0.4 0
16 0.4 0
16.4 0.4 0
16.8 0.4 0
17.2 0.4 0
17.6 0.4 0
18 0.4 0
18.4 0.4 0
18.8 0.4 0
19.2 0.4 0
19.6 0.4 0
20 0.4 0
20.4 0.4 0
20.8 0.4 0
21.2 0.4 0
21.6 0.4 0
22 0.4 0
22.4 0.4 0
22.8 0.4 0
23.2 0.4 0
23.6 0.4 0
24 0.4 0
24.4 0.4 0
24.8 0.4 0
25.2 0.4 0
25.6 0.4 0
26 0.4 0
26.4 0.4 0
26.8 0.4 0
27.2 0.4 0
27.6 0.4 0
28 0.4 0
28.4 0.4 0
28.8 0.4 0
29.2 0.4 0
29.6 0.4 0
30 0.4 0
30.4 0.4 0
30.8 0.4 0
31.2 0.4 0
31.6 0.4 0
32 0.4 0
32.4 0.4 0
32.8 0.4 0
33.2 0.4 0
33.6 0.4 0
34 0.4 0
34.4 0.4 0
34.8 0.4 0
35.2 0.4 0
35.6 0.4 0
36 0.4 0
36.4 0.4 0
36.8 0.4 0
37.2 0.4 0
37.6 0.4 0
38 0.4 0
38.4 0.4 0
38.8 0.4 0
39.2 0.4 0
39.6 0.4 0
40 0.4 0
40.4 0.4 0
0 0.5 0
0.4 0.5 0
0.8 0.5 0
1.2 0.5 0
1.6 0.5 0
2 0.5 0
2.4 0.5 0
2.8 0.5 0
3.2 0.5 0
3.6 0.5 0
4 0.5 0
4.4 0.5 0
4.8 0.5 0
5.2 0.5 0
5.6 0.5 0
6 0.5 0
6.4 0.5 0
6.8 0.5 0
7.2 0.5 0
7.6 0.5 0
8 0.5 0
8.4 0.5 0
8.8 0.5 0
9.2 0.5 0
9.6 0.5 0
10 0.5 0
10.4 0.5 0
10.8 0.5 0
11.2 0.5 0
11.6 0.5 0
12 0.5 0
12.4 0.5 0
12.8 0.5 0
13.2 0.5 0
13.6 0.5 0
14 0.5 0
14.4 0.5 0
14.8 0.5 0
15.2 0.5 0
15.6 0.5 0
16 0.5 0
16.4 0.5 0
16.8 0.5 0
17.2 0.5 0
17.6 0.5 0
18 0.5 0
18.4 0.5 0
18.8 0.5 0
19.2 0.5 0
19.6 0.5 0
20 0.5 0
20.4 0.5 0
20.8 0.5 0
21.2 0.5 0
21.6 0.5 0
22 0.5 0
22.4 0.5 0
22.8 0.5 0
23.2 0.5 0
23.6 0.5 0
24 0.5 0
24.4 0.5 0
24.8 0.5 0
25.2 0.5 0
25.6 0.5 0
26 0.5 0
26.4 0.5 0
26.8 0.5 0
27.2 0.5 0
27.6 0.5 0
28 0.5 0
28.4 0.5 0
28.8 0.5 0
29.2 0.5 0
29.6 0.5 0
30 0.5 0
30.4 0.5 0
30.8 0.5 0
31.2 0.5 0
31.6 0.5 0
32 0.5 0
32.4 0.5 0
32.8 0.5 0
33.2 0.5 0
33.6 0.5 0
34 0.5 0
34.4 0.5 0
34.8 0.5 0
35.2 0.5 0
35.6 0.5 0
36 0.5 0
36.4 0.5 0
36.8 0.5 0
37.2 0.5 0
37.6 0.5 0
38 0.5 0
38.4 0.5 0
38.8 0.5 0
39.2 0.5 0
39.6 0.5 0
40 0.5 0
40.4 0.5 0
0 0.6 0
0.4 0.6 0
0.8 0.6 0
1.2 0.6 0
1.6 0.6 0
2 0.6 0
2.4 0.6 0
2.8 0.6 0
3.2 0.6 0
3.6 0.6 0
4 0.6 0
4.4 0.6 0
4.8 0.6 0
5.2 0.6 0
5.6 0.6 0
6 0.6 0
6.4 0.6 0
6.8 0.6 0
7.2 0.6 0
7.6 0.6 0
8 0.6 0
8.4 0.6 0
8.8 0.6 0
9.2 0.6 0
9.6 0.6 0
10 0.6 0
10.4 0.6 0
10.8 0.6 0
11.2 0.6 0
11.6 0.6 0
12 0.6 0
12.4 0.6 0
12.8 0.6 0
13.2 0.6 0
13.6 0.6 0
14 0.6 0
14.4 0.6 0
14.8 0.6 0
15.2 0.6 0
15.6 0.6 0
16 0.6 0
16.4 0.6 0
16.8 0.6 0
17.2 0.6 0
17.6 0.6 0
18 0.6 0
18.4 0.6 0
18.8 0.6 0
19.2 0.6 0
19.6 0.6 0
20 0.6 0
20.4 0.6 0
20.8 0.6 0
21.2 0.6 0
21.6 0.6 0
22 0.6 0
22.4 0.6 0
22.8 0.6 0
23.2 0.6 0
23.6 0.6 0
24 0.6 0
24.4 0.6 0
24.8 0.6 0
25.2 0.6 0
25.6 0.6 0
26 0.6 0
26.4 0.6 0
26.8 0.6 0
27.2 0.6 0
27.6 0.6 0
28 0.6 0
28.4 0.6 0
28.8 0.6 0
29.2 0.6 0
29.6 0.6 0
30 0.6 0
30.4 0.6 0
30.8 0.6 0
31.2 0.6 0
31.6 0.6 0
32 0.6 0
32.4 0.6 0
32.8 0.6 0
33.2 0.6 0
33.6 0.6 0
34 0.6 0
34.4 0.6 0
34.8 0.6 0
35.2 0.6 0
35.6 0.6 0
36 0.6 0
36.4 0.6 0
36.8 0.6 0
37.2 0.6 0
37.6 0.6 0
38 0.6 0
38.4 0.6 0
38.8 0.6 0
39.2 0.6 0
39.6 0.6 0
40 0.6 0
40.4 0.6 0
0 0.7 0
0.4 0.7 0
0.8 0.7 0
1.2 0.7 0
1.6 0.7 0
2 0.7 0
2.4 0.7 0
2.8 0.7 0
3.2 0.7 0
3.6 0.7 0
4 0.7 0
4.4 0.7 0
4.8 0.7 0
5.2 0.7 0
5.6 0.7 0
6 0.7 0
6.4 0.7 0
6.8 0.7 0
7.2 0.7 0
7.6 0.7 0
8 0.7 0
8.4 0.7 0
8.8 0.7 0
9.2 0.7 0
9.6 0.7 0
10 0.7 0
10.4 0.7 0
10.8 0.7 0
11.2 0.7 0
11.6 0.7 0
12 0.7 0
12.4 0.7 0
12.8 0.7 0
13.2 0.7 0
13.6 0.7 0
14 0.7 0
14.4 0.7 0
14.8 0.7 0
15.2 0.7 0
15.6 0.7 0
16 0.7 0
16.4 0.7 0
16.8 0.7 0
17.2 0.7 0
17.6 0.7 0
18 0.7 0
18.4 0.7 0
18.8 0.7 0
19.2 0.7 0
19.6 0.7 0
20 0.7 0
20.4 0.7 0
20.8 0.7 0
21.2 0.7 0
21.6 0.7 0
22 0.7 0
22.4 0.7 0
22.8 0.7 0
23.2 0.7 0
23.6 0.7 0
24 0.7 0
24.4 0.7 0
24.8 0.7 0
25.2 0.7 0
25.6 0.7 0
26 0.7 0
26.4 0.7 0
26.8 0.7 0
27.2 0.7 0
27.6 0.7 0
28 0.7 0
28.4 0.7 0
28.8 0.7 0
29.2 0.7 0
29.6 0.7 0
30 0.7 0
30.4 0.7 0
30.8 0.7 0
31.2 0.7 0
31.6 0.7 0
32 0.7 0
32.4 0.7 0
32.8 0.7 0
33.2 0.7 0
33.6 0.7 0
34 0.7 0
34.4 0.7 0
34.8 0.7 0
35.2 0.7 0
35.6 0.7 0
36 0.7 0
36.4 0.7 0
36.8 0.7 0
37.2 0.7 0
37.6 0.7 0
38 0.7 0
38.4 0.7 0
38.8 0.7 0
39.2 0.7 0
39.6 0.7 0
40 0.7 0
40.4 0.7 0
0 0.8 0
0.4 0.8 0
0.8 0.8 0
1.2 0.8 0
1.6 0.8 0
2 0.8 0
2.4 0.8 0
2.8 0.8 0
3.2 0.8 0
3.6 0.8 0
4 0.8 0
4.4 0.8 0
4.8 0.8 0
5.2 0.8 0
5.6 0.8 0
6 0.8 0
6.4 0.8 0
6.8 0.8 0
7.2 0.8 0
7.6 0.8 0
8 0.8 0
8.4 0.8 0
8.8 0.8 0
9.2 0.8 0
9.6 0.8 0
10 0.8 0
10.4 0.8 0
10.8 0.8 0
11.2 0.8 0
11.6 0.8 0
12 0.8 0
12.4 0.8 0
12.8 0.8 0
13.2 0.8 0
13.6 0.8 0
14 0.8 0
14.4 0.8 0
14.8 0.8 0
15.2 0.8 0
15.6 0.8 0
16 0.8 0
16.4 0.8 0
16.8 0.8 0
17.2 0.8 0
17.6 0.8 0
18 0.8 0
18.4 0.8 0
18.8 0.8 0
19.2 0.8 0
19.6 0.8 0
20 0.8 0
20.4 0.8 0
20.8 0.8 0
21.2 0.8 0
21.6 0.8 0
22 0.8 0
22.4 0.8 0
22.8 0.8 0
23.2 0.8 0
23.6 0.8 0
24 0.8 0
24.4 0.8 0
24.8 0.8 0
25.2 0.8 0
25.6 0.8 0
26 0.8 0
26.4 0.8 0
26.8 0.8 0
27.2 0.8 0
27.6 0.8 0
28 0.8 0
28.4 0.8 0
28.8 0.8 0
29.2 0.8 0
29.6 0.8 0
30 0.8 0
30.4 0.8 0
30.8 0.8 0
31.2 0.8 0
31.6 0.8 0
32 0.8 0
32.4 0.8 0
32.8 0.8 0
33.2 0.8 0
33.6 0.8 0
34 0.8 0
34.4 0.8 0
34.8 0.8 0
35.2 0.8 0
35.6 0.8 0
36 0.8 0
36.4 0.8 0
36.8 0.8 0
37.2 0.8 0
37.6 0.8 0
38 0.8 0
38.4 0.8 0
38.8 0.8 0
39.2 0.8 0
39.6 0.8 0
40 0.8 0
40.4 0.8 0
0 0.9 0
0.4 0.9 0
0.8 0.9 0
1.2 0.9 0
1.6 0.9 0
2 0.9 0
2.4 0.9 0
2.8 0.9 0
3.2 0.9 0
3.6 0.9 0
4 0.9 0
4.4 0.9 0
4.8 0.9 0
5.2 0.9 0
5.6 0.9 0
6 0.9 0
6.4 0.9 0
6.8 0.9 0
7.2 0.9 0
7.6 0.9 0
8 0.9 0
8.4 0.9 0
8.8 0.9 0
9.2 0.9 0
9.6 0.9 0
10 0.9 0
10.4 0.9 0
10.8 0.9 0
11.2 0.9 0
11.6 0.9 0
12 0.9 0
12.4 0.9 0
12.8 0.9 0
13.2 0.9 0
13.6 0.9 0
14 0.9 0
14.4 0.9 0
14.8 0.9 0
15.2 0.9 0
15.6 0.9 0
16 0.9 0
16.4 0.9 0
16.8 0.9 0
17.2 0.9 0
17.6 0.9 0
18 0.9 0
18.4 0.9 0
18.8 0.9 0
19.2 0.9 0
19.6 0.9 0
20 0.9 0
20.4 0.9 0
20.8 0.9 0
21.2 0.9 0
21.6 0.9 0
22 0.9 0
22.4 0.9 0
22.8 0.9 0
23.2 0.9 0
23.6 0.9 0
24 0.9 0
24.4 0.9 0
24.8 0.9 0
25.2 0.9 0
25.6 0.9 0
26 0.9 0
26.4 0.9 0
26.8 0.9 0
27.2 0.9 0
27.6 0.9 0
28 0.9 0
28.4 0.9 0
28.8 0.9 0
29.2 0.9 0
29.6 0.9 0
30 0.9 0
30.4 0.9 0
30.8 0.9 0
31.2 0.9 0
31.6 0.9 0
32 0.9 0
32.4 0.9 0
32.8 0.9 0
33.2 0.9 0
33.6 0.9 0
34 0.9 0
34.4 0.9 0
34.8 0.9 0
35.2 0.9 0
35.6 0.9 0
36 0.9 0
36.4 0.9 0
36.8 0.9 0
37.2 0.9 0
37.6 0.9 0
38 0.9 0
38.4 0.9 0
38.8 0.9 0
39.2 0.9 0
39.6 0.9 0
40 0.9 0
40.4 0.9 0
0 1 0
0.4 1 0
0.8 1 0
1.2 1 0
1.6 1 0
2 1 0
2.4 1 0
2.8 1 0
3.2 1 0
3.6 1 0
4 1 0
4.4 1 0
4.8 1 0
5.2 1 0
5.6 1 0
6 1 0
6.4 1 0
6.8 1 0
7.2 1 0
7.6 1 0
8 1 0
8.4 1 0
8.8 1 0
9.2 1 0
9.6 1 0
10 1 0
10.4 1 0
10.8 1 0
11.2 1 0
11.6 1 0
12 1 0
12.4 1 0
12.8 1 0
13.2 1 0
13.6 1 0
14 1 0
14.4 1 0
14.8 1 0
15.2 1 0
15.6 1 0
16 1 0
16.4 1 0
16.8 1 0
17.2 1 0
17.6 1 0
18 1 0
18.4 1 0
18.8 1 0
19.2 1 0
19.6 1 0
20 1 0
20.4 1 0
20.8 1 0
21.2 1 0
21.6 1 0
22 1 0
22.4 1 0
22.8 1 0
23.2 1 0
23.6 1 0
24 1 0
24.4 1 0
24.8 1 0
25.2 1 0
25.6 1 0
26 1 0
26.4 1 0
26.8 1 0
27.2 1 0
27.6 1 0
28 1 0
28.4 1 0
28.8 1 0
29.2 1 0
29.6 1 0
30 1 0
30.4 1 0
30.8 1 0
31.2 1 0
31.6 1 0
32 1 0
32.4 1 0
32.8 1 0
33.2 1 0
33.6 1 0
34 1 0
34.4 1 0
34.8 1 0
35.2 1 0
35.6 1 0
36 1 0
36.4 1 0
36.8 1 0
37.2 1 0
37.6 1 0
38 1 0
38.4 1 0
38.8 1 0
39.2 1 0
39.6 1 0
40 1 0
40.4 1 0
0 1.1 0
0.4 1.1 0
0.8 1.1 0
1.2 1.1 0
1.6 1.1 0
2 1.1 0
2.4 1.1 0
2.8 1.1 0
3.2 1.1 0
3.6 1.1 0
4 1.1 0
4.4 1.1 0
4.8 1.1 0
5.2 1.1 0
5.6 1.1 0
6 1.1 0
6.4 1.1 0
6.8 1.1 0
7.2 1.1 0
7.6 1.1 0
8 1.1 0
8.4 1.1 0
8.8 1.1 0
9.2 1.1 0
9.6 1.1 0
10 1.1 0
10.4 1.1 0
10.8 1.1 0
11.2 1.1 0
11.6 1.1 0
12 1.1 0
12.4 1.1 0
12.8 1.1 0
13.2 1.1 0
13.6 1.1 0
14 1.1 0
14.4 1.1 0
14.8 1.1 0
15.2 1.1 0
15.6 1.1 0
16 1.1 0
16.4 1.1 0
16.8 1.1 0
17.2 1.1 0
17.6 1.1 0
18 1.1 0
18.4 1.1 0
18.8 1.1 0
19.2 1.1 0
19.6 1.1 0
20 1.1 0
20.4 1.1 0
20.8 1.1 0
21.2 1.1 0
21.6 1.1 0
22 1.1 0
22.4 1.1 0
22.8 1.1 0
23.2 1.1 0
23.6 1.1 0
24 1.1 0
24.4 1.1 0
24.8 1.1 0
25.2 1.1 0
25.6 1.1 0
26 1.1 0
26.4 1.1 0
26.8 1.1 0
27.2 1.1 0
27.6 1.1 0
28 1.1 0
28.4 1.1 0
28.8 1.1 0
29.2 1.1 0
29.6 1.1 0
30 1.1 0
30.4 1.1 0
30.8 1.1 0
31.2 1.1 0
31.6 1.1 0
32 1.1 0
32.4 1.1 0
32.8 1.1 0
33.2 1.1 0
33.6 1.1 0
34 1.1 0
34.4 1.1 0
34.8 1.1 0
35.2 1.1 0
35.6 1.1 0
36 1.1 0
36.4 1.1 0
36.8 1.1 0
37.2 1.1 0
37.6 1.1 0
38 1.1 0
38.4 1.1 0
38.8 1.1 0
39.2 1.1 0
39.6 1.1 0
40 1.1 0
40.4 1.1 0

POINT_DATA 1224

SCALARS phi double
LOOKUP_TABLE default
0.999994
1.00001
0.999954
0.999564
0.998306
0.995645
0.991567
0.986251
0.97893
0.967337
0.948409
0.91961
0.879897
0.829919
0.771614
0.707579
0.640514
0.572843
0.50653
0.443038
0.383371
0.328154
0.277732
0.232248
0.191709
0.156032
0.125067
0.0986005
0.0763655
0.0580363
0.0432353
0.0315448
0.0225239
0.0157299
0.0107394
0.00716583
0.0046719
0.0029759
0.00185196
0.00112605
0.000669035
0.000388485
0.000220507
0.000122376
6.64212e-05
3.52675e-05
1.83242e-05
9.31938e-06
4.6408e-06
2.26348e-06
1.08161e-06
5.06534e-07
2.32553e-07
1.04699e-07
4.62378e-08
2.00362e-08
8.52153e-09
3.55819e-09
1.45904e-09
5.87694e-10
2.3259e-10
9.04693e-11
3.4593e-11
1.30064e-11
4.80965e-12
1.74967e-12
6.263e-13
2.20643e-13
7.65189e-14
2.61283e-14
8.78627e-15
2.91029e-15
9.49702e-16
3.05381e-16
9.67783e-17
3.02325e-17
9.31119e-18
2.82777e-18
8.46964e-19
2.50228e-19
7.29332e-20
2.09749e-20
5.95288e-21
1.66751e-21
4.61089e-22
1.25875e-22
3.39304e-23
9.03218e-24
2.37469e-24
6.1672e-25
1.5823e-25
4.01108e-26
1.00475e-26
2.48731e-27
6.08592e-28
1.47196e-28
3.51952e-29
8.3203e-30
1.94491e-30
4.49937e-31
9.79524e-32
9.79524e-32
0.999994
1.00001
0.999954
0.999564
0.998306
0.995645
0.991567
0.986251
0.97893
0.967337
0.948409
0.91961
0.879897
0.829919
0.771614
0.707579
0.640514
0.572843
0.50653
0.443038
0.383371
0.328154
0.277732
0.232248
0.191709
0.156032
0.125067
0.0986005
0.0763655
0.0580363
0.0432353
0.0315448
0.0225239
0.0157299
0.0107394
0.00716583
0.0046719
0.0029759
0.00185196
0.00112605
0.000669035
0.000388485
0.000220507
0.000122376
6.64212e-05
3.52675e-05
1.83242e-05
9.31938e-06
4.6408e-06
2.26348e-06
1.08161e-06
5.06534e-07
2.32553e-07
1.04699e-07
4.62378e-08
2.00362e-08
8.52153e-09
3.55819e-09
1.45904e-09
5.87694e-10
2.3259e-10
9.04693e-11
3.4593e-11
1.30064e-11
4.80965e-12
1.74967e-12
6.263e-13
2.20643e-13
7.65189e-14
2.61283e-14
8.78627e-15
2.91029e-15
9.49702e-16
3.05381e-16
9.67783e-17
3.02325e-17
9.31119e-18
2.82777e-18
8.46964e-19
2.50228e-19
7.29332e-20
2.09749e-20
5.95288e-21
1.66751e-21
4.61089e-22
1.25875e-22
3.39304e-23
9.03218e-24
2.37469e-24
6.1672e-25
1.5823e-25
4.01108e-26
1.00475e-26
2.48731e-27
6.08592e-28
1.47196e-28
3.51952e-29
8.3203e-30
1.94491e-30
4.49937e-31
9.79524e-32
9.79524e-32
0.99999
1.00001
0.999542
0.998172
0.995444
0.991071
0.985098
0.97783
0.969348
0.95896
0.945118
0.925882
0.899624
0.865541
0.823814
0.775466
0.722051
0.665338
0.607052
0.548702
0.491501
0.436349
0.383866
0.334446
0.28833
0.24567
0.20658
0.171164
0.139511
0.111681
0.0876754
0.0674118
0.050707
0.0372804
0.0267715
0.0187683
0.0128407
0.0085721
0.00558329
0.00354824
0.00220044
0.00133186
0.000786982
0.000454094
0.000255937
0.000140952
7.58755e-05
3.99375e-05
2.05618e-05
1.03584e-05
5.10783e-06
2.46627e-06
1.16642e-06
5.40545e-07
2.45535e-07
1.09356e-07
4.77705e-08
2.04739e-08
8.61186e-09
3.55614e-09
1.44202e-09
5.74375e-10
2.24788e-10
8.64602e-11
3.26918e-11
1.21549e-11
4.44486e-12
1.59905e-12
5.66062e-13
1.97225e-13
6.76471e-14
2.28465e-14
7.59907e-15
2.48978e-15
8.03719e-16
2.55666e-16
8.01585e-17
2.47747e-17
7.5497e-18
2.26874e-18
6.72428e-19
1.96601e-19
5.67112e-20
1.61423e-20
4.53462e-21
1.25735e-21
3.44173e-22
9.30166e-23
2.48238e-23
6.54268e-24
1.70326e-24
4.38026e-25
1.11292e-25
2.79401e-26
6.93175e-27
1.69965e-27
4.11931e-28
9.86936e-29
2.33772e-29
5.47969e-30
1.20477e-30
1.20477e-30
1.00047
0.999533
0.995342
0.98848
0.979268
0.968241
0.956018
0.943161
0.930063
0.916789
0.902934
0.887656
0.86988
0.848574
0.823002
0.792857
0.758274
0.719756
0.678054
0.634029
0.588534
0.542323
0.495995
0.449985
0.404599
0.36007
0.31664
0.274623
0.234437
0.196592
0.161639
0.130092
0.102347
0.0786212
0.0589215
0.0430546
0.0306626
0.0212791
0.014389
0.00948142
0.00608903
0.00381205
0.00232718
0.00138583
0.000805286
0.000456793
0.000253039
0.000136939
7.24294e-05
3.74561e-05
1.89463e-05
9.37756e-06
4.54344e-06
2.15563e-06
1.00188e-06
4.5632e-07
2.03742e-07
8.92076e-08
3.83154e-08
1.61486e-08
6.68066e-09
2.71369e-09
1.08264e-09
4.24338e-10
1.63443e-10
6.18812e-11
2.30359e-11
8.43358e-12
3.03729e-12
1.07629e-12
3.75356e-13
1.28861e-13
4.35573e-14
1.44994e-14
4.75422e-15
1.53579e-15
4.88873e-16
1.53373e-16
4.74321e-17
1.44625e-17
4.34845e-18
1.2895e-18
3.77201e-19
1.08858e-19
3.09992e-20
8.71184e-21
2.41658e-21
6.61742e-22
1.78909e-22
4.77631e-23
1.25929e-23
3.27938e-24
8.43614e-25
2.14406e-25
5.38422e-26
1.33615e-26
3.27705e-27
7.94434e-28
1.90379e-28
4.51453e-29
1.00234e-29
1.00234e-29
1.00913
0.990874
0.963593
0.936343
0.910574
0.886792
0.865192
0.845725
0.828206
0.812374
0.797868
0.784195
0.770725
0.756746
0.74155
0.724521
0.705211
0.683376
0.658968
0.63211
0.603033
0.572005
0.53926
0.504953
0.469147
0.43186
0.393145
0.353189
0.312399
0.271436
0.231181
0.192638
0.156801
0.124518
0.096379
0.0726634
0.0533404
0.038117
0.0265148
0.017956
0.0118405
0.00760486
0.00475904
0.00290281
0.00172649
0.00100171
0.000567202
0.000313576
0.000169336
8.93598e-05
4.61009e-05
2.32613e-05
1.1484e-05
5.54958e-06
2.62608e-06
1.2173e-06
5.52958e-07
2.46232e-07
1.07524e-07
4.606e-08
1.93614e-08
7.9888e-09
3.23662e-09
1.28794e-09
5.03518e-10
1.93452e-10
7.30609e-11
2.71308e-11
9.90872e-12
3.56003e-12
1.25856e-12
4.37905e-13
1.49991e-13
5.05857e-14
1.68018e-14
5.49715e-15
1.77199e-15
5.6287e-16
1.76222e-16
5.43874e-17
1.655e-17
4.9663e-18
1.46987e-18
4.29144e-19
1.23617e-19
3.51373e-20
9.85691e-21
2.72935e-21
7.46083e-22
2.01365e-22
5.36673e-23
1.41261e-23
3.67264e-24
9.43263e-25
2.39353e-25
6.00139e-26
1.48703e-26
3.64164e-27
8.81502e-28
2.11134e-28
4.72967e-29
4.72967e-29
1.10476
0.895237
0.791779
0.734418
0.698349
0.673559
0.65547
0.64166
0.630715
0.621766
0.614237
0.607697
0.601765
0.596055
0.590168
0.583698
0.576258
0.567514
0.557199
0.545132
0.531197
0.515311
0.497374
0.477224
0.454618
0.429266
0.400915
0.369474
0.335136
0.298455
0.260348
0.222012
0.184768
0.149882
0.118395
0.0910151
0.0680653
0.0495115
0.0350321
0.0241141
0.0161522
0.0105316
0.0066869
0.00413624
0.00249362
0.00146589
0.000840655
0.000470528
0.000257162
0.000137303
7.16473e-05
3.65561e-05
1.82451e-05
8.91126e-06
4.26104e-06
1.99548e-06
9.15583e-07
4.11745e-07
1.81549e-07
7.85136e-08
3.33139e-08
1.38732e-08
5.67195e-09
2.27733e-09
8.98221e-10
3.48119e-10
1.3261e-10
4.96646e-11
1.82915e-11
6.6266e-12
2.36198e-12
8.28531e-13
2.86079e-13
9.72526e-14
3.25573e-14
1.07354e-14
3.48737e-15
1.11627e-15
3.52143e-16
1.09503e-16
3.3571e-17
1.01488e-17
3.02585e-18
8.89888e-19
2.58196e-19
7.39189e-20
2.08844e-20
5.82389e-21
1.60321e-21
4.3573e-22
1.16937e-22
3.09925e-23
8.11303e-24
2.09792e-24
5.35959e-25
1.35288e-25
3.37465e-26
8.31933e-27
2.02713e-27
4.88737e-28
1.10144e-28
1.10144e-28
-0.104763
0.104763
0.208221
0.265582
0.301651
0.326442
0.34453
0.358339
0.369287
0.378251
0.385793
0.392273
0.397913
0.402823
0.407024
0.410463
0.413027
0.414563
0.414903
0.413873
0.411299
0.406979
0.40066
0.392005
0.380586
0.365933
0.347626
0.325426
0.29941
0.270054
0.238243
0.205181
0.172241
0.140774
0.111929
0.0865333
0.0650336
0.0475101
0.0337426
0.0233032
0.0156545
0.0102333
0.0065123
0.00403641
0.00243784
0.00143542
0.000824384
0.000462028
0.000252817
0.000135129
7.05822e-05
3.6045e-05
1.80048e-05
8.8005e-06
4.21099e-06
1.9733e-06
9.05939e-07
4.0763e-07
1.79825e-07
7.78045e-08
3.30274e-08
1.37595e-08
5.62759e-09
2.26032e-09
8.91806e-10
3.4574e-10
1.31742e-10
4.9353e-11
1.81814e-11
6.58831e-12
2.34887e-12
8.24109e-13
2.84609e-13
9.67717e-14
3.24022e-14
1.06861e-14
3.47191e-15
1.1115e-15
3.50689e-16
1.09066e-16
3.34414e-17
1.01109e-17
3.01491e-18
8.86773e-19
2.5732e-19
7.36759e-20
2.08178e-20
5.80587e-21
1.5984e-21
4.34459e-22
1.16606e-22
3.0907e-23
8.09128e-24
2.09245e-24
5.34598e-25
1.34954e-25
3.36653e-26
8.29982e-27
2.02249e-27
4.87648e-28
1.09905e-28
1.09905e-28
-0.00912621
0.00912621
0.036407
0.0636559
0.0894265
0.11321
0.134805
0.154272
0.171814
0.187685
0.202128
0.215355
0.227536
0.238789
0.249182
0.258722
0.267365
0.275017
0.281547
0.286795
0.290563
0.292603
0.292599
0.290158
0.28483
0.276169
0.263836
0.247711
0.227995
0.205248
0.180367
0.154478
0.128789
0.104429
0.08231
0.0630442
0.0469209
0.0339354
0.0238562
0.0163059
0.0108406
0.00701321
0.00441708
0.0027097
0.00161991
0.000944202
0.000536856
0.000297911
0.000161422
8.54459e-05
4.42054e-05
2.2362e-05
1.10659e-05
5.35905e-06
2.54093e-06
1.17998e-06
5.36907e-07
2.39457e-07
1.04717e-07
4.49174e-08
1.89046e-08
7.80938e-09
3.16736e-09
1.26165e-09
4.93709e-10
1.89851e-10
7.17606e-11
2.66688e-11
9.74712e-12
3.50439e-12
1.2397e-12
4.31606e-13
1.4792e-13
4.99143e-14
1.65874e-14
5.42966e-15
1.75104e-15
5.56462e-16
1.74289e-16
5.38121e-17
1.63811e-17
4.91739e-18
1.45589e-18
4.252e-19
1.22519e-19
3.48354e-20
9.77499e-21
2.7074e-21
7.40271e-22
1.99846e-22
5.32748e-23
1.40259e-23
3.64738e-24
9.36968e-25
2.37803e-25
5.96364e-26
1.47795e-26
3.62002e-27
8.76415e-28
2.09949e-28
4.70382e-29
4.70382e-29
-0.000467024
0.000467024
0.00465756
0.0115186
0.0207355
0.0317579
0.0439669
0.0568513
0.0700489
0.0833196
0.0965065
0.109501
0.122214
0.134553
0.146406
0.157631
0.168059
0.177493
0.185719
0.192509
0.197615
0.200767
0.201668
0.200016
0.195536
0.188043
0.177516
0.164153
0.148402
0.130936
0.112586
0.0942397
0.0767284
0.0607324
0.0467196
0.0349264
0.0253755
0.0179211
0.0123064
0.00821998
0.00534276
0.00338073
0.00208358
0.00125135
0.0007327
0.000418475
0.000233249
0.000126936
6.74796e-05
3.50575e-05
1.78077e-05
8.84788e-06
4.30191e-06
2.04763e-06
9.54519e-07
4.35938e-07
1.95135e-07
8.56387e-08
3.68623e-08
1.55674e-08
6.45229e-09
2.62549e-09
1.04915e-09
4.11837e-10
1.58852e-10
6.02231e-11
2.24465e-11
8.2274e-12
2.96629e-12
1.05222e-12
3.67315e-13
1.26216e-13
4.27e-14
1.42256e-14
4.66802e-15
1.50904e-15
4.80689e-16
1.50904e-16
4.66973e-17
1.42468e-17
4.28597e-18
1.27164e-18
3.72165e-19
1.07456e-19
3.06139e-20
8.60728e-21
2.38856e-21
6.54327e-22
1.76971e-22
4.72626e-23
1.24652e-23
3.24719e-24
8.35593e-25
2.12431e-25
5.33615e-26
1.32458e-26
3.24954e-27
7.87962e-28
1.88874e-28
4.47987e-29
9.94861e-30
9.94861e-30
9.54876e-06
-9.54876e-06
0.000456067
0.00182852
0.00456364
0.00891119
0.014875
0.022304
0.0309827
0.0406799
0.0511633
0.0621947
0.0735183
0.0848521
0.0958869
0.106293
0.115737
0.123894
0.130466
0.135191
0.137849
0.138272
0.136357
0.132079
0.125517
0.116875
0.106487
0.0948096
0.0823863
0.069799
0.0576054
0.0462823
0.0361834
0.0275188
0.0203578
0.0146496
0.0102559
0.00698682
0.00463306
0.00299154
0.0018816
0.00115331
0.000689199
0.000401708
0.000228477
0.000126863
6.87987e-05
3.64563e-05
1.88842e-05
9.5663e-06
4.74119e-06
2.29988e-06
1.09236e-06
5.08204e-07
2.31676e-07
1.03526e-07
4.53625e-08
1.9497e-08
8.22252e-09
3.40365e-09
1.38332e-09
5.52158e-10
2.16518e-10
8.34325e-11
3.16012e-11
1.17683e-11
4.30996e-12
1.55271e-12
5.50388e-13
1.92003e-13
6.59331e-14
2.22922e-14
7.42243e-15
2.43429e-15
7.86536e-16
2.5042e-16
7.85786e-17
2.43055e-17
7.41221e-18
2.22899e-18
6.6109e-19
1.93408e-19
5.5824e-20
1.58989e-20
4.46867e-21
1.23971e-21
3.39511e-22
9.17999e-23
2.451e-23
6.46276e-24
1.68314e-24
4.33021e-25
1.10062e-25
2.7641e-26
6.85988e-27
1.68257e-27
4.0792e-28
9.77619e-29
2.31631e-29
5.43101e-30
1.19437e-30
1.19437e-30
5.82414e-06
-5.82414e-06
4.36978e-05
0.000440554
0.00170031
0.0042983
0.00846219
0.0141997
0.0213912
0.0298432
0.039304
0.0494627
0.0599504
0.0703499
0.0802172
0.0891085
0.0966101
0.102365
0.106093
0.107612
0.106844
0.10383
0.0987259
0.0918032
0.0834321
0.0740566
0.0641585
0.0542166
0.0446642
0.0358542
0.0280369
0.0213517
0.0158344
0.0114349
0.00804192
0.00550871
0.00367618
0.00239065
0.00151546
0.000936751
0.000564828
0.00033234
0.000190895
0.000107083
5.86859e-05
3.14345e-05
1.6463e-05
8.4336e-06
4.22748e-06
2.07434e-06
9.96703e-07
4.69135e-07
2.16384e-07
9.78365e-08
4.33776e-08
1.88652e-08
8.05055e-09
3.37202e-09
1.3867e-09
5.60057e-10
2.22207e-10
8.66317e-11
3.31975e-11
1.25071e-11
4.63377e-12
1.68868e-12
6.05474e-13
2.13638e-13
7.41984e-14
2.53708e-14
8.54261e-15
2.83303e-15
9.25555e-16
2.97939e-16
9.45167e-17
2.95546e-17
9.11073e-18
2.76929e-18
8.30128e-19
2.45445e-19
7.15918e-20
2.06036e-20
5.85137e-21
1.64011e-21
4.53785e-22
1.23952e-22
3.34302e-23
8.90366e-24
2.34206e-24
6.08531e-25
1.56199e-25
3.9613e-26
9.92688e-27
2.45841e-27
6.01746e-28
1.45592e-28
3.48237e-29
8.23517e-30
1.92561e-30
4.45608e-31
9.70367e-32
9.70367e-32
5.82414e-06
-5.82414e-06
4.36978e-05
0.000440554
0.00170031
0.0042983
0.00846219
0.0141997
0.0213912
0.0298432
0.039304
0.0494627
0.0599504
0.0703499
0.0802172
0.0891085
0.0966101
0.102365
0.106093
0.107612
0.106844
0.10383
0.0987259
0.0918032
0.0834321
0.0740566
0.0641585
0.0542166
0.0446642
0.0358542
0.0280369
0.0213517
0.0158344
0.0114349
0.00804192
0.00550871
0.00367618
0.00239065
0.00151546
0.000936751
0.000564828
0.00033234
0.000190895
0.000107083
5.86859e-05
3.14345e-05
1.6463e-05
8.4336e-06
4.22748e-06
2.07434e-06
9.96703e-07
4.69135e-07
2.16384e-07
9.78365e-08
4.33776e-08
1.88652e-08
8.05055e-09
3.37202e-09
1.3867e-09
5.60057e-10
2.22207e-10
8.66317e-11
3.31975e-11
1.25071e-11
4.63377e-12
1.68868e-12
6.05474e-13
2.13638e-13
7.41984e-14
2.53708e-14
8.54261e-15
2.83303e-15
9.25555e-16
2.97939e-16
9.45167e-17
2.95546e-17
9.11073e-18
2.76929e-18
8.30128e-19
2.45445e-19
7.15918e-20
2.06036e-20
5.85137e-21
1.64011e-21
4.53785e-22
1.23952e-22
3.34302e-23
8.90366e-24
2.34206e-24
6.08531e-25
1.56199e-25
3.9613e-26
9.92688e-27
2.45841e-27
6.01746e-28
1.45592e-28
3.48237e-29
8.23517e-30
1.92561e-30
4.45608e-31
9.70367e-32
9.70367e-32
