# vtk DataFile Version 2.0
FlowField
ASCII
DATASET STRUCTURED_GRID
DIMENSIONS 102 1 12 
POINTS 1224 double
0 0 0
0.4 0 0
0.8 0 0
1.2 0 0
1.6 0 0
2 0 0
2.4 0 0
2.8 0 0
3.2 0 0
3.6 0 0
4 0 0
4.4 0 0
4.8 0 0
5.2 0 0
5.6 0 0
6 0 0
6.4 0 0
6.8 0 0
7.2 0 0
7.6 0 0
8 0 0
8.4 0 0
8.8 0 0
9.2 0 0
9.6 0 0
10 0 0
10.4 0 0
10.8 0 0
11.2 0 0
11.6 0 0
12 0 0
12.4 0 0
12.8 0 0
13.2 0 0
13.6 0 0
14 0 0
14.4 0 0
14.8 0 0
15.2 0 0
15.6 0 0
16 0 0
16.4 0 0
16.8 0 0
17.2 0 0
17.6 0 0
18 0 0
18.4 0 0
18.8 0 0
19.2 0 0
19.6 0 0
20 0 0
20.4 0 0
20.8 0 0
21.2 0 0
21.6 0 0
22 0 0
22.4 0 0
22.8 0 0
23.2 0 0
23.6 0 0
24 0 0
24.4 0 0
24.8 0 0
25.2 0 0
25.6 0 0
26 0 0
26.4 0 0
26.8 0 0
27.2 0 0
27.6 0 0
28 0 0
28.4 0 0
28.8 0 0
29.2 0 0
29.6 0 0
30 0 0
30.4 0 0
30.8 0 0
31.2 0 0
31.6 0 0
32 0 0
32.4 0 0
32.8 0 0
33.2 0 0
33.6 0 0
34 0 0
34.4 0 0
34.8 0 0
35.2 0 0
35.6 0 0
36 0 0
36.4 0 0
36.8 0 0
37.2 0 0
37.6 0 0
38 0 0
38.4 0 0
38.8 0 0
39.2 0 0
39.6 0 0
40 0 0
40.4 0 0
0 0.1 0
0.4 0.1 0
0.8 0.1 0
1.2 0.1 0
1.6 0.1 0
2 0.1 0
2.4 0.1 0
2.8 0.1 0
3.2 0.1 0
3.6 0.1 0
4 0.1 0
4.4 0.1 0
4.8 0.1 0
5.2 0.1 0
5.6 0.1 0
6 0.1 0
6.4 0.1 0
6.8 0.1 0
7.2 0.1 0
7.6 0.1 0
8 0.1 0
8.4 0.1 0
8.8 0.1 0
9.2 0.1 0
9.6 0.1 0
10 0.1 0
10.4 0.1 0
10.8 0.1 0
11.2 0.1 0
11.6 0.1 0
12 0.1 0
12.4 0.1 0
12.8 0.1 0
13.2 0.1 0
13.6 0.1 0
14 0.1 0
14.4 0.1 0
14.8 0.1 0
15.2 0.1 0
15.6 0.1 0
16 0.1 0
16.4 0.1 0
16.8 0.1 0
17.2 0.1 0
17.6 0.1 0
18 0.1 0
18.4 0.1 0
18.8 0.1 0
19.2 0.1 0
19.6 0.1 0
20 0.1 0
20.4 0.1 0
20.8 0.1 0
21.2 0.1 0
21.6 0.1 0
22 0.1 0
22.4 0.1 0
22.8 0.1 0
23.2 0.1 0
23.6 0.1 0
24 0.1 0
24.4 0.1 0
24.8 0.1 0
25.2 0.1 0
25.6 0.1 0
26 0.1 0
26.4 0.1 0
26.8 0.1 0
27.2 0.1 0
27.6 0.1 0
28 0.1 0
28.4 0.1 0
28.8 0.1 0
29.2 0.1 0
29.6 0.1 0
30 0.1 0
30.4 0.1 0
30.8 0.1 0
31.2 0.1 0
31.6 0.1 0
32 0.1 0
32.4 0.1 0
32.8 0.1 0
33.2 0.1 0
33.6 0.1 0
34 0.1 0
34.4 0.1 0
34.8 0.1 0
35.2 0.1 0
35.6 0.1 0
36 0.1 0
36.4 0.1 0
36.8 0.1 0
37.2 0.1 0
37.6 0.1 0
38 0.1 0
38.4 0.1 0
38.8 0.1 0
39.2 0.1 0
39.6 0.1 0
40 0.1 0
40.4 0.1 0
0 0.2 0
0.4 0.2 0
0.8 0.2 0
1.2 0.2 0
1.6 0.2 0
2 0.2 0
2.4 0.2 0
2.8 0.2 0
3.2 0.2 0
3.6 0.2 0
4 0.2 0
4.4 0.2 0
4.8 0.2 0
5.2 0.2 0
5.6 0.2 0
6 0.2 0
6.4 0.2 0
6.8 0.2 0
7.2 0.2 0
7.6 0.2 0
8 0.2 0
8.4 0.2 0
8.8 0.2 0
9.2 0.2 0
9.6 0.2 0
10 0.2 0
10.4 0.2 0
10.8 0.2 0
11.2 0.2 0
11.6 0.2 0
12 0.2 0
12.4 0.2 0
12.8 0.2 0
13.2 0.2 0
13.6 0.2 0
14 0.2 0
14.4 0.2 0
14.8 0.2 0
15.2 0.2 0
15.6 0.2 0
16 0.2 0
16.4 0.2 0
16.8 0.2 0
17.2 0.2 0
17.6 0.2 0
18 0.2 0
18.4 0.2 0
18.8 0.2 0
19.2 0.2 0
19.6 0.2 0
20 0.2 0
20.4 0.2 0
20.8 0.2 0
21.2 0.2 0
21.6 0.2 0
22 0.2 0
22.4 0.2 0
22.8 0.2 0
23.2 0.2 0
23.6 0.2 0
24 0.2 0
24.4 0.2 0
24.8 0.2 0
25.2 0.2 0
25.6 0.2 0
26 0.2 0
26.4 0.2 0
26.8 0.2 0
27.2 0.2 0
27.6 0.2 0
28 0.2 0
28.4 0.2 0
28.8 0.2 0
29.2 0.2 0
29.6 0.2 0
30 0.2 0
30.4 0.2 0
30.8 0.2 0
31.2 0.2 0
31.6 0.2 0
32 0.2 0
32.4 0.2 0
32.8 0.2 0
33.2 0.2 0
33.6 0.2 0
34 0.2 0
34.4 0.2 0
34.8 0.2 0
35.2 0.2 0
35.6 0.2 0
36 0.2 0
36.4 0.2 0
36.8 0.2 0
37.2 0.2 0
37.6 0.2 0
38 0.2 0
38.4 0.2 0
38.8 0.2 0
39.2 0.2 0
39.6 0.2 0
40 0.2 0
40.4 0.2 0
0 0.3 0
0.4 0.3 0
0.8 0.3 0
1.2 0.3 0
1.6 0.3 0
2 0.3 0
2.4 0.3 0
2.8 0.3 0
3.2 0.3 0
3.6 0.3 0
4 0.3 0
4.4 0.3 0
4.8 0.3 0
5.2 0.3 0
5.6 0.3 0
6 0.3 0
6.4 0.3 0
6.8 0.3 0
7.2 0.3 0
7.6 0.3 0
8 0.3 0
8.4 0.3 0
8.8 0.3 0
9.2 0.3 0
9.6 0.3 0
10 0.3 0
10.4 0.3 0
10.8 0.3 0
11.2 0.3 0
11.6 0.3 0
12 0.3 0
12.4 0.3 0
12.8 0.3 0
13.2 0.3 0
13.6 0.3 0
14 0.3 0
14.4 0.3 0
14.8 0.3 0
15.2 0.3 0
15.6 0.3 0
16 0.3 0
16.4 0.3 0
16.8 0.3 0
17.2 0.3 0
17.6 0.3 0
18 0.3 0
18.4 0.3 0
18.8 0.3 0
19.2 0.3 0
19.6 0.3 0
20 0.3 0
20.4 0.3 0
20.8 0.3 0
21.2 0.3 0
21.6 0.3 0
22 0.3 0
22.4 0.3 0
22.8 0.3 0
23.2 0.3 0
23.6 0.3 0
24 0.3 0
24.4 0.3 0
24.8 0.3 0
25.2 0.3 0
25.6 0.3 0
26 0.3 0
26.4 0.3 0
26.8 0.3 0
27.2 0.3 0
27.6 0.3 0
28 0.3 0
28.4 0.3 0
28.8 0.3 0
29.2 0.3 0
29.6 0.3 0
30 0.3 0
30.4 0.3 0
30.8 0.3 0
31.2 0.3 0
31.6 0.3 0
32 0.3 0
32.4 0.3 0
32.8 0.3 0
33.2 0.3 0
33.6 0.3 0
34 0.3 0
34.4 0.3 0
34.8 0.3 0
35.2 0.3 0
35.6 0.3 0
36 0.3 0
36.4 0.3 0
36.8 0.3 0
37.2 0.3 0
37.6 0.3 0
38 0.3 0
38.4 0.3 0
38.8 0.3 0
39.2 0.3 0
39.6 0.3 0
40 0.3 0
40.4 0.3 0
0 0.4 0
0.4 0.4 0
0.8 0.4 0
1.2 0.4 0
1.6 0.4 0
2 0.4 0
2.4 0.4 0
2.8 0.4 0
3.2 0.4 0
3.6 0.4 0
4 0.4 0
4.4 0.4 0
4.8 0.4 0
5.2 0.4 0
5.6 0.4 0
6 0.4 0
6.4 0.4 0
6.8 0.4 0
7.2 0.4 0
7.6 0.4 0
8 0.4 0
8.4 0.4 0
8.8 0.4 0
9.2 0.4 0
9.6 0.4 0
10 0.4 0
10.4 0.4 0
10.8 0.4 0
11.2 0.4 0
11.6 0.4 0
12 0.4 0
12.4 0.4 0
12.8 0.4 0
13.2 0.4 0
13.6 0.4 0
14 0.4 0
14.4 0.4 0
14.8 0.4 0
15.2 0.4 0
15.6 0.4 0
16 0.4 0
16.4 0.4 0
16.8 0.4 0
17.2 0.4 0
17.6 0.4 0
18 0.4 0
18.4 0.4 0
18.8 0.4 0
19.2 0.4 0
19.6 0.4 0
20 0.4 0
20.4 0.4 0
20.8 0.4 0
21.2 0.4 0
21.6 0.4 0
22 0.4 0
22.4 0.4 0
22.8 0.4 0
23.2 0.4 0
23.6 0.4 0
24 0.4 0
24.4 0.4 0
24.8 0.4 0
25.2 0.4 0
25.6 0.4 0
26 0.4 0
26.4 0.4 0
26.8 0.4 0
27.2 0.4 0
27.6 0.4 0
28 0.4 0
28.4 0.4 0
28.8 0.4 0
29.2 0.4 0
29.6 0.4 0
30 0.4 0
30.4 0.4 0
30.8 0.4 0
31.2 0.4 0
31.6 0.4 0
32 0.4 0
32.4 0.4 0
32.8 0.4 0
33.2 0.4 0
33.6 0.4 0
34 0.4 0
34.4 0.4 0
34.8 0.4 0
35.2 0.4 0
35.6 0.4 0
36 0.4 0
36.4 0.4 0
36.8 0.4 0
37.2 0.4 0
37.6 0.4 0
38 0.4 0
38.4 0.4 0
38.8 0.4 0
39.2 0.4 0
39.6 0.4 0
40 0.4 0
40.4 0.4 0
0 0.5 0
0.4 0.5 0
0.8 0.5 0
1.2 0.5 0
1.6 0.5 0
2 0.5 0
2.4 0.5 0
2.8 0.5 0
3.2 0.5 0
3.6 0.5 0
4 0.5 0
4.4 0.5 0
4.8 0.5 0
5.2 0.5 0
5.6 0.5 0
6 0.5 0
6.4 0.5 0
6.8 0.5 0
7.2 0.5 0
7.6 0.5 0
8 0.5 0
8.4 0.5 0
8.8 0.5 0
9.2 0.5 0
9.6 0.5 0
10 0.5 0
10.4 0.5 0
10.8 0.5 0
11.2 0.5 0
11.6 0.5 0
12 0.5 0
12.4 0.5 0
12.8 0.5 0
13.2 0.5 0
13.6 0.5 0
14 0.5 0
14.4 0.5 0
14.8 0.5 0
15.2 0.5 0
15.6 0.5 0
16 0.5 0
16.4 0.5 0
16.8 0.5 0
17.2 0.5 0
17.6 0.5 0
18 0.5 0
18.4 0.5 0
18.8 0.5 0
19.2 0.5 0
19.6 0.5 0
20 0.5 0
20.4 0.5 0
20.8 0.5 0
21.2 0.5 0
21.6 0.5 0
22 0.5 0
22.4 0.5 0
22.8 0.5 0
23.2 0.5 0
23.6 0.5 0
24 0.5 0
24.4 0.5 0
24.8 0.5 0
25.2 0.5 0
25.6 0.5 0
26 0.5 0
26.4 0.5 0
26.8 0.5 0
27.2 0.5 0
27.6 0.5 0
28 0.5 0
28.4 0.5 0
28.8 0.5 0
29.2 0.5 0
29.6 0.5 0
30 0.5 0
30.4 0.5 0
30.8 0.5 0
31.2 0.5 0
31.6 0.5 0
32 0.5 0
32.4 0.5 0
32.8 0.5 0
33.2 0.5 0
33.6 0.5 0
34 0.5 0
34.4 0.5 0
34.8 0.5 0
35.2 0.5 0
35.6 0.5 0
36 0.5 0
36.4 0.5 0
36.8 0.5 0
37.2 0.5 0
37.6 0.5 0
38 0.5 0
38.4 0.5 0
38.8 0.5 0
39.2 0.5 0
39.6 0.5 0
40 0.5 0
40.4 0.5 0
0 0.6 0
0.4 0.6 0
0.8 0.6 0
1.2 0.6 0
1.6 0.6 0
2 0.6 0
2.4 0.6 0
2.8 0.6 0
3.2 0.6 0
3.6 0.6 0
4 0.6 0
4.4 0.6 0
4.8 0.6 0
5.2 0.6 0
5.6 0.6 0
6 0.6 0
6.4 0.6 0
6.8 0.6 0
7.2 0.6 0
7.6 0.6 0
8 0.6 0
8.4 0.6 0
8.8 0.6 0
9.2 0.6 0
9.6 0.6 0
10 0.6 0
10.4 0.6 0
10.8 0.6 0
11.2 0.6 0
11.6 0.6 0
12 0.6 0
12.4 0.6 0
12.8 0.6 0
13.2 0.6 0
13.6 0.6 0
14 0.6 0
14.4 0.6 0
14.8 0.6 0
15.2 0.6 0
15.6 0.6 0
16 0.6 0
16.4 0.6 0
16.8 0.6 0
17.2 0.6 0
17.6 0.6 0
18 0.6 0
18.4 0.6 0
18.8 0.6 0
19.2 0.6 0
19.6 0.6 0
20 0.6 0
20.4 0.6 0
20.8 0.6 0
21.2 0.6 0
21.6 0.6 0
22 0.6 0
22.4 0.6 0
22.8 0.6 0
23.2 0.6 0
23.6 0.6 0
24 0.6 0
24.4 0.6 0
24.8 0.6 0
25.2 0.6 0
25.6 0.6 0
26 0.6 0
26.4 0.6 0
26.8 0.6 0
27.2 0.6 0
27.6 0.6 0
28 0.6 0
28.4 0.6 0
28.8 0.6 0
29.2 0.6 0
29.6 0.6 0
30 0.6 0
30.4 0.6 0
30.8 0.6 0
31.2 0.6 0
31.6 0.6 0
32 0.6 0
32.4 0.6 0
32.8 0.6 0
33.2 0.6 0
33.6 0.6 0
34 0.6 0
34.4 0.6 0
34.8 0.6 0
35.2 0.6 0
35.6 0.6 0
36 0.6 0
36.4 0.6 0
36.8 0.6 0
37.2 0.6 0
37.6 0.6 0
38 0.6 0
38.4 0.6 0
38.8 0.6 0
39.2 0.6 0
39.6 0.6 0
40 0.6 0
40.4 0.6 0
0 0.7 0
0.4 0.7 0
0.8 0.7 0
1.2 0.7 0
1.6 0.7 0
2 0.7 0
2.4 0.7 0
2.8 0.7 0
3.2 0.7 0
3.6 0.7 0
4 0.7 0
4.4 0.7 0
4.8 0.7 0
5.2 0.7 0
5.6 0.7 0
6 0.7 0
6.4 0.7 0
6.8 0.7 0
7.2 0.7 0
7.6 0.7 0
8 0.7 0
8.4 0.7 0
8.8 0.7 0
9.2 0.7 0
9.6 0.7 0
10 0.7 0
10.4 0.7 0
10.8 0.7 0
11.2 0.7 0
11.6 0.7 0
12 0.7 0
12.4 0.7 0
12.8 0.7 0
13.2 0.7 0
13.6 0.7 0
14 0.7 0
14.4 0.7 0
14.8 0.7 0
15.2 0.7 0
15.6 0.7 0
16 0.7 0
16.4 0.7 0
16.8 0.7 0
17.2 0.7 0
17.6 0.7 0
18 0.7 0
18.4 0.7 0
18.8 0.7 0
19.2 0.7 0
19.6 0.7 0
20 0.7 0
20.4 0.7 0
20.8 0.7 0
21.2 0.7 0
21.6 0.7 0
22 0.7 0
22.4 0.7 0
22.8 0.7 0
23.2 0.7 0
23.6 0.7 0
24 0.7 0
24.4 0.7 0
24.8 0.7 0
25.2 0.7 0
25.6 0.7 0
26 0.7 0
26.4 0.7 0
26.8 0.7 0
27.2 0.7 0
27.6 0.7 0
28 0.7 0
28.4 0.7 0
28.8 0.7 0
29.2 0.7 0
29.6 0.7 0
30 0.7 0
30.4 0.7 0
30.8 0.7 0
31.2 0.7 0
31.6 0.7 0
32 0.7 0
32.4 0.7 0
32.8 0.7 0
33.2 0.7 0
33.6 0.7 0
34 0.7 0
34.4 0.7 0
34.8 0.7 0
35.2 0.7 0
35.6 0.7 0
36 0.7 0
36.4 0.7 0
36.8 0.7 0
37.2 0.7 0
37.6 0.7 0
38 0.7 0
38.4 0.7 0
38.8 0.7 0
39.2 0.7 0
39.6 0.7 0
40 0.7 0
40.4 0.7 0
0 0.8 0
0.4 0.8 0
0.8 0.8 0
1.2 0.8 0
1.6 0.8 0
2 0.8 0
2.4 0.8 0
2.8 0.8 0
3.2 0.8 0
3.6 0.8 0
4 0.8 0
4.4 0.8 0
4.8 0.8 0
5.2 0.8 0
5.6 0.8 0
6 0.8 0
6.4 0.8 0
6.8 0.8 0
7.2 0.8 0
7.6 0.8 0
8 0.8 0
8.4 0.8 0
8.8 0.8 0
9.2 0.8 0
9.6 0.8 0
10 0.8 0
10.4 0.8 0
10.8 0.8 0
11.2 0.8 0
11.6 0.8 0
12 0.8 0
12.4 0.8 0
12.8 0.8 0
13.2 0.8 0
13.6 0.8 0
14 0.8 0
14.4 0.8 0
14.8 0.8 0
15.2 0.8 0
15.6 0.8 0
16 0.8 0
16.4 0.8 0
16.8 0.8 0
17.2 0.8 0
17.6 0.8 0
18 0.8 0
18.4 0.8 0
18.8 0.8 0
19.2 0.8 0
19.6 0.8 0
20 0.8 0
20.4 0.8 0
20.8 0.8 0
21.2 0.8 0
21.6 0.8 0
22 0.8 0
22.4 0.8 0
22.8 0.8 0
23.2 0.8 0
23.6 0.8 0
24 0.8 0
24.4 0.8 0
24.8 0.8 0
25.2 0.8 0
25.6 0.8 0
26 0.8 0
26.4 0.8 0
26.8 0.8 0
27.2 0.8 0
27.6 0.8 0
28 0.8 0
28.4 0.8 0
28.8 0.8 0
29.2 0.8 0
29.6 0.8 0
30 0.8 0
30.4 0.8 0
30.8 0.8 0
31.2 0.8 0
31.6 0.8 0
32 0.8 0
32.4 0.8 0
32.8 0.8 0
33.2 0.8 0
33.6 0.8 0
34 0.8 0
34.4 0.8 0
34.8 0.8 0
35.2 0.8 0
35.6 0.8 0
36 0.8 0
36.4 0.8 0
36.8 0.8 0
37.2 0.8 0
37.6 0.8 0
38 0.8 0
38.4 0.8 0
38.8 0.8 0
39.2 0.8 0
39.6 0.8 0
40 0.8 0
40.4 0.8 0
0 0.9 0
0.4 0.9 0
0.8 0.9 0
1.2 0.9 0
1.6 0.9 0
2 0.9 0
2.4 0.9 0
2.8 0.9 0
3.2 0.9 0
3.6 0.9 0
4 0.9 0
4.4 0.9 0
4.8 0.9 0
5.2 0.9 0
5.6 0.9 0
6 0.9 0
6.4 0.9 0
6.8 0.9 0
7.2 0.9 0
7.6 0.9 0
8 0.9 0
8.4 0.9 0
8.8 0.9 0
9.2 0.9 0
9.6 0.9 0
10 0.9 0
10.4 0.9 0
10.8 0.9 0
11.2 0.9 0
11.6 0.9 0
12 0.9 0
12.4 0.9 0
12.8 0.9 0
13.2 0.9 0
13.6 0.9 0
14 0.9 0
14.4 0.9 0
14.8 0.9 0
15.2 0.9 0
15.6 0.9 0
16 0.9 0
16.4 0.9 0
16.8 0.9 0
17.2 0.9 0
17.6 0.9 0
18 0.9 0
18.4 0.9 0
18.8 0.9 0
19.2 0.9 0
19.6 0.9 0
20 0.9 0
20.4 0.9 0
20.8 0.9 0
21.2 0.9 0
21.6 0.9 0
22 0.9 0
22.4 0.9 0
22.8 0.9 0
23.2 0.9 0
23.6 0.9 0
24 0.9 0
24.4 0.9 0
24.8 0.9 0
25.2 0.9 0
25.6 0.9 0
26 0.9 0
26.4 0.9 0
26.8 0.9 0
27.2 0.9 0
27.6 0.9 0
28 0.9 0
28.4 0.9 0
28.8 0.9 0
29.2 0.9 0
29.6 0.9 0
30 0.9 0
30.4 0.9 0
30.8 0.9 0
31.2 0.9 0
31.6 0.9 0
32 0.9 0
32.4 0.9 0
32.8 0.9 0
33.2 0.9 0
33.6 0.9 0
34 0.9 0
34.4 0.9 0
34.8 0.9 0
35.2 0.9 0
35.6 0.9 0
36 0.9 0
36.4 0.9 0
36.8 0.9 0
37.2 0.9 0
37.6 0.9 0
38 0.9 0
38.4 0.9 0
38.8 0.9 0
39.2 0.9 0
39.6 0.9 0
40 0.9 0
40.4 0.9 0
0 1 0
0.4 1 0
0.8 1 0
1.2 1 0
1.6 1 0
2 1 0
2.4 1 0
2.8 1 0
3.2 1 0
3.6 1 0
4 1 0
4.4 1 0
4.8 1 0
5.2 1 0
5.6 1 0
6 1 0
6.4 1 0
6.8 1 0
7.2 1 0
7.6 1 0
8 1 0
8.4 1 0
8.8 1 0
9.2 1 0
9.6 1 0
10 1 0
10.4 1 0
10.8 1 0
11.2 1 0
11.6 1 0
12 1 0
12.4 1 0
12.8 1 0
13.2 1 0
13.6 1 0
14 1 0
14.4 1 0
14.8 1 0
15.2 1 0
15.6 1 0
16 1 0
16.4 1 0
16.8 1 0
17.2 1 0
17.6 1 0
18 1 0
18.4 1 0
18.8 1 0
19.2 1 0
19.6 1 0
20 1 0
20.4 1 0
20.8 1 0
21.2 1 0
21.6 1 0
22 1 0
22.4 1 0
22.8 1 0
23.2 1 0
23.6 1 0
24 1 0
24.4 1 0
24.8 1 0
25.2 1 0
25.6 1 0
26 1 0
26.4 1 0
26.8 1 0
27.2 1 0
27.6 1 0
28 1 0
28.4 1 0
28.8 1 0
29.2 1 0
29.6 1 0
30 1 0
30.4 1 0
30.8 1 0
31.2 1 0
31.6 1 0
32 1 0
32.4 1 0
32.8 1 0
33.2 1 0
33.6 1 0
34 1 0
34.4 1 0
34.8 1 0
35.2 1 0
35.6 1 0
36 1 0
36.4 1 0
36.8 1 0
37.2 1 0
37.6 1 0
38 1 0
38.4 1 0
38.8 1 0
39.2 1 0
39.6 1 0
40 1 0
40.4 1 0
0 1.1 0
0.4 1.1 0
0.8 1.1 0
1.2 1.1 0
1.6 1.1 0
2 1.1 0
2.4 1.1 0
2.8 1.1 0
3.2 1.1 0
3.6 1.1 0
4 1.1 0
4.4 1.1 0
4.8 1.1 0
5.2 1.1 0
5.6 1.1 0
6 1.1 0
6.4 1.1 0
6.8 1.1 0
7.2 1.1 0
7.6 1.1 0
8 1.1 0
8.4 1.1 0
8.8 1.1 0
9.2 1.1 0
9.6 1.1 0
10 1.1 0
10.4 1.1 0
10.8 1.1 0
11.2 1.1 0
11.6 1.1 0
12 1.1 0
12.4 1.1 0
12.8 1.1 0
13.2 1.1 0
13.6 1.1 0
14 1.1 0
14.4 1.1 0
14.8 1.1 0
15.2 1.1 0
15.6 1.1 0
16 1.1 0
16.4 1.1 0
16.8 1.1 0
17.2 1.1 0
17.6 1.1 0
18 1.1 0
18.4 1.1 0
18.8 1.1 0
19.2 1.1 0
19.6 1.1 0
20 1.1 0
20.4 1.1 0
20.8 1.1 0
21.2 1.1 0
21.6 1.1 0
22 1.1 0
22.4 1.1 0
22.8 1.1 0
23.2 1.1 0
23.6 1.1 0
24 1.1 0
24.4 1.1 0
24.8 1.1 0
25.2 1.1 0
25.6 1.1 0
26 1.1 0
26.4 1.1 0
26.8 1.1 0
27.2 1.1 0
27.6 1.1 0
28 1.1 0
28.4 1.1 0
28.8 1.1 0
29.2 1.1 0
29.6 1.1 0
30 1.1 0
30.4 1.1 0
30.8 1.1 0
31.2 1.1 0
31.6 1.1 0
32 1.1 0
32.4 1.1 0
32.8 1.1 0
33.2 1.1 0
33.6 1.1 0
34 1.1 0
34.4 1.1 0
34.8 1.1 0
35.2 1.1 0
35.6 1.1 0
36 1.1 0
36.4 1.1 0
36.8 1.1 0
37.2 1.1 0
37.6 1.1 0
38 1.1 0
38.4 1.1 0
38.8 1.1 0
39.2 1.1 0
39.6 1.1 0
40 1.1 0
40.4 1.1 0

POINT_DATA 1224

SCALARS phi double
LOOKUP_TABLE default
0.999994
1.00001
0.999956
0.999559
0.9983
0.995702
0.991537
0.9858
0.978615
0.970169
0.960673
0.950341
0.939374
0.92795
0.916225
0.904331
0.892374
0.880445
0.868612
0.856933
0.845449
0.834193
0.82319
0.812457
0.802006
0.791842
0.781968
0.77238
0.763071
0.754028
0.745232
0.736662
0.728288
0.720075
0.711986
0.703977
0.696005
0.68802
0.679978
0.671832
0.663538
0.655056
0.646352
0.637394
0.628157
0.618623
0.608778
0.598614
0.588129
0.577326
0.566211
0.554794
0.543088
0.531109
0.518874
0.506402
0.493713
0.480825
0.46776
0.454537
0.441176
0.427696
0.414116
0.400455
0.386731
0.372964
0.359171
0.345372
0.331586
0.317831
0.304129
0.290499
0.276963
0.263544
0.250263
0.237145
0.224212
0.211489
0.199
0.18677
0.174822
0.163179
0.151866
0.140903
0.130312
0.120113
0.110322
0.100957
0.0920314
0.0835573
0.0755443
0.0679994
0.0609269
0.0543285
0.0482025
0.0425458
0.0373459
0.0326125
0.0282558
0.0245544
0.020334
0.020334
0.999994
1.00001
0.999956
0.999559
0.9983
0.995702
0.991537
0.9858
0.978615
0.970169
0.960673
0.950341
0.939374
0.92795
0.916225
0.904331
0.892374
0.880445
0.868612
0.856933
0.845449
0.834193
0.82319
0.812457
0.802006
0.791842
0.781968
0.77238
0.763071
0.754028
0.745232
0.736662
0.728288
0.720075
0.711986
0.703977
0.696005
0.68802
0.679978
0.671832
0.663538
0.655056
0.646352
0.637394
0.628157
0.618623
0.608778
0.598614
0.588129
0.577326
0.566211
0.554794
0.543088
0.531109
0.518874
0.506402
0.493713
0.480825
0.46776
0.454537
0.441176
0.427696
0.414116
0.400455
0.386731
0.372964
0.359171
0.345372
0.331586
0.317831
0.304129
0.290499
0.276963
0.263544
0.250263
0.237145
0.224212
0.211489
0.199
0.18677
0.174822
0.163179
0.151866
0.140903
0.130312
0.120113
0.110322
0.100957
0.0920314
0.0835573
0.0755443
0.0679994
0.0609269
0.0543285
0.0482025
0.0425458
0.0373459
0.0326125
0.0282558
0.0245544
0.020334
0.020334
0.99999
1.00001
0.999544
0.998171
0.995436
0.991089
0.985125
0.977696
0.969019
0.959326
0.94884
0.937759
0.92626
0.914491
0.902577
0.890621
0.878707
0.8669
0.855254
0.843809
0.832597
0.821639
0.810952
0.800548
0.790433
0.780611
0.77108
0.761838
0.752879
0.744193
0.735767
0.727583
0.719622
0.711857
0.70426
0.696798
0.689433
0.682129
0.674843
0.667536
0.660165
0.652693
0.64508
0.637295
0.629305
0.621086
0.612615
0.603875
0.594854
0.585544
0.575941
0.566046
0.555861
0.545394
0.534653
0.523649
0.512395
0.500903
0.489189
0.477267
0.465152
0.45286
0.440406
0.427806
0.415075
0.402229
0.389283
0.376255
0.363159
0.350013
0.336836
0.323644
0.310457
0.297296
0.284181
0.271133
0.258175
0.245331
0.232625
0.22008
0.207723
0.195576
0.183667
0.172018
0.160655
0.1496
0.138876
0.128504
0.118505
0.108895
0.0996931
0.0909125
0.0825661
0.0746646
0.0672153
0.0602263
0.0536911
0.0476451
0.0419543
0.037102
0.0312512
0.0312512
1.00047
0.999533
0.995342
0.988481
0.979264
0.968242
0.956033
0.943149
0.929951
0.916682
0.903497
0.890497
0.877746
0.865283
0.853133
0.841311
0.829823
0.818673
0.80786
0.79738
0.787231
0.777405
0.767897
0.7587
0.749806
0.741207
0.732894
0.724861
0.717096
0.70959
0.702331
0.695307
0.688502
0.681901
0.675484
0.669228
0.66311
0.657102
0.651176
0.645301
0.639444
0.633573
0.627656
0.62166
0.615555
0.609313
0.602906
0.59631
0.589506
0.582474
0.5752
0.567673
0.559883
0.551825
0.543495
0.534892
0.526017
0.516873
0.507463
0.497793
0.487869
0.477698
0.467287
0.456646
0.445783
0.434707
0.423429
0.411959
0.400309
0.388491
0.376518
0.364405
0.352166
0.339818
0.32738
0.314869
0.302307
0.289715
0.277116
0.264535
0.251996
0.239526
0.227151
0.214898
0.202796
0.190872
0.179154
0.167668
0.156442
0.145501
0.134871
0.124574
0.114635
0.105075
0.0959125
0.08717
0.0788477
0.0710198
0.0634819
0.0570193
0.0488663
0.0488663
1.00913
0.990874
0.963593
0.936344
0.910574
0.88679
0.865195
0.845729
0.828186
0.812315
0.797874
0.784649
0.77246
0.761157
0.750619
0.740743
0.731448
0.722666
0.714341
0.706426
0.698883
0.691679
0.684787
0.678184
0.671849
0.665765
0.659918
0.654293
0.648879
0.643664
0.638638
0.63379
0.62911
0.624588
0.620209
0.615963
0.611834
0.607807
0.603863
0.599985
0.59615
0.592337
0.588523
0.584685
0.580797
0.576835
0.572775
0.568594
0.564268
0.559777
0.5551
0.550219
0.545116
0.539776
0.534186
0.528334
0.52221
0.515804
0.509109
0.50212
0.494831
0.48724
0.479344
0.471142
0.462633
0.45382
0.444703
0.435288
0.425578
0.41558
0.405301
0.394751
0.383941
0.372883
0.361593
0.350086
0.33838
0.326496
0.314457
0.302285
0.290006
0.277649
0.26524
0.25281
0.24039
0.228011
0.215706
0.203506
0.191444
0.179553
0.167865
0.156411
0.145223
0.134331
0.123763
0.113555
0.103711
0.0943422
0.0851734
0.0772769
0.067024
0.067024
1.10476
0.895237
0.791779
0.734418
0.698349
0.673559
0.65547
0.641661
0.630713
0.621752
0.614215
0.607733
0.602055
0.597005
0.592456
0.588315
0.584512
0.580993
0.577715
0.574645
0.571757
0.569029
0.566443
0.563985
0.561643
0.559406
0.557266
0.555217
0.553251
0.551363
0.549548
0.547801
0.546118
0.544494
0.542925
0.541404
0.539927
0.538485
0.537071
0.535675
0.534288
0.532897
0.53149
0.530051
0.528565
0.527015
0.525383
0.523652
0.521801
0.519811
0.517662
0.515334
0.512807
0.510062
0.507079
0.50384
0.500327
0.496522
0.49241
0.487975
0.483203
0.478083
0.472601
0.466748
0.460516
0.453898
0.44689
0.439487
0.43169
0.423499
0.414917
0.405951
0.396609
0.386901
0.376839
0.36644
0.355722
0.344705
0.333412
0.321868
0.310101
0.29814
0.286016
0.273762
0.261413
0.249003
0.236569
0.224148
0.211776
0.199491
0.187331
0.175331
0.163529
0.151962
0.140663
0.129675
0.119005
0.108787
0.0987026
0.0899957
0.0785273
0.0785273
-0.104763
0.104763
0.208221
0.265582
0.301651
0.326441
0.34453
0.358339
0.369287
0.378248
0.385785
0.392267
0.397945
0.402995
0.407544
0.411685
0.415488
0.419007
0.422285
0.425355
0.428243
0.430971
0.433557
0.436015
0.438357
0.440594
0.442734
0.444783
0.446749
0.448637
0.45045
0.452195
0.453872
0.455487
0.45704
0.458533
0.459968
0.461345
0.462662
0.463918
0.46511
0.466234
0.467283
0.468252
0.46913
0.469908
0.470573
0.471113
0.47151
0.47175
0.471813
0.471681
0.471333
0.470747
0.469902
0.468775
0.467345
0.465589
0.463485
0.461012
0.458152
0.454884
0.451193
0.447062
0.44248
0.437435
0.431919
0.425926
0.419454
0.412503
0.405077
0.397181
0.388825
0.380021
0.370785
0.361136
0.351096
0.340688
0.329939
0.31888
0.307542
0.295958
0.284165
0.2722
0.2601
0.247906
0.235656
0.223392
0.211154
0.198982
0.186916
0.174995
0.163259
0.151745
0.14049
0.129538
0.118898
0.108703
0.098637
0.0899444
0.07849
0.07849
-0.00912621
0.00912621
0.036407
0.0636558
0.0894265
0.11321
0.134805
0.154271
0.171814
0.187685
0.202126
0.215351
0.22754
0.238843
0.249381
0.259257
0.268552
0.277334
0.285659
0.293574
0.301117
0.308321
0.315213
0.321816
0.328151
0.334235
0.340082
0.345707
0.35112
0.356333
0.361354
0.366193
0.370858
0.375355
0.37969
0.38387
0.3879
0.391782
0.395521
0.399119
0.402575
0.40589
0.409061
0.412083
0.414952
0.417658
0.420192
0.422541
0.424691
0.426625
0.428325
0.42977
0.430938
0.431806
0.43235
0.432545
0.432367
0.43179
0.430791
0.429346
0.427436
0.425039
0.422139
0.418722
0.414775
0.410291
0.405265
0.399695
0.393584
0.386936
0.379762
0.372075
0.363892
0.355232
0.34612
0.336582
0.326647
0.316348
0.305718
0.294796
0.283617
0.272224
0.260656
0.248956
0.237165
0.225326
0.213481
0.201672
0.189941
0.178327
0.166871
0.155609
0.144579
0.133817
0.123355
0.113234
0.103459
0.0941456
0.0850213
0.0771586
0.0669384
0.0669384
-0.000467025
0.000467025
0.00465755
0.0115186
0.0207356
0.0317579
0.0439669
0.0568514
0.0700488
0.083318
0.0965028
0.109503
0.122254
0.134717
0.146867
0.158689
0.170177
0.181327
0.19214
0.20262
0.212769
0.222595
0.232103
0.2413
0.250194
0.258793
0.267105
0.275137
0.282898
0.290396
0.297639
0.304634
0.31139
0.317913
0.32421
0.330288
0.336151
0.341804
0.34725
0.352491
0.357528
0.362359
0.366981
0.371387
0.37557
0.379519
0.38322
0.386659
0.389817
0.392674
0.395207
0.397393
0.399207
0.400621
0.401611
0.402149
0.40221
0.401771
0.400808
0.399302
0.397235
0.394594
0.391366
0.387546
0.383131
0.378121
0.372523
0.366346
0.359604
0.352315
0.344501
0.336187
0.327404
0.318182
0.308558
0.298567
0.288251
0.277651
0.266809
0.255769
0.244577
0.233275
0.221911
0.210527
0.199167
0.187875
0.17669
0.165654
0.154804
0.144176
0.133804
0.123721
0.113956
0.104538
0.0954896
0.0868392
0.0785905
0.0708209
0.0633293
0.0569016
0.0487819
0.0487819
9.54834e-06
-9.54834e-06
0.000456061
0.00182854
0.00456363
0.00891112
0.0148752
0.0223044
0.0309812
0.0406736
0.0511603
0.0622408
0.0737403
0.0855094
0.0974232
0.109379
0.121293
0.1331
0.144746
0.156191
0.167403
0.178361
0.189048
0.199452
0.209567
0.219388
0.228917
0.238152
0.247098
0.255759
0.264139
0.272244
0.280079
0.28765
0.294963
0.302021
0.308829
0.315388
0.3217
0.327763
0.333574
0.339128
0.344415
0.349425
0.354144
0.358555
0.362639
0.366373
0.369734
0.372695
0.37523
0.37731
0.378907
0.379994
0.380544
0.380532
0.379935
0.378734
0.376913
0.374458
0.371363
0.367624
0.363242
0.358222
0.352576
0.34632
0.339474
0.332063
0.324115
0.315663
0.306745
0.297398
0.287665
0.277591
0.26722
0.256601
0.245781
0.234809
0.223734
0.212603
0.201464
0.190363
0.179346
0.168455
0.15773
0.147212
0.136937
0.126938
0.117245
0.107889
0.0988929
0.0902798
0.0820687
0.0742757
0.066913
0.0599927
0.0535117
0.047508
0.0418505
0.0370229
0.0311951
0.0311951
5.82414e-06
-5.82414e-06
4.36942e-05
0.000440584
0.00170024
0.00429825
0.00846288
0.0141997
0.0213849
0.0298313
0.039327
0.0496587
0.0606261
0.0720499
0.0837747
0.0956693
0.107626
0.119555
0.131388
0.143067
0.154551
0.165807
0.17681
0.187542
0.197993
0.208154
0.218022
0.227596
0.236875
0.245864
0.254565
0.262982
0.271121
0.278985
0.286578
0.293902
0.300959
0.307749
0.314269
0.320513
0.326475
0.332143
0.337503
0.34254
0.347233
0.351559
0.355494
0.359009
0.362078
0.364669
0.366752
0.368298
0.369279
0.369666
0.369436
0.368568
0.367044
0.364851
0.36198
0.358428
0.354197
0.349294
0.343732
0.337528
0.330705
0.323292
0.31532
0.306825
0.297849
0.288434
0.278627
0.268476
0.25803
0.247342
0.236463
0.225444
0.214339
0.203198
0.192072
0.181008
0.170053
0.159253
0.148649
0.138282
0.128187
0.118398
0.108947
0.0998597
0.0911607
0.0828702
0.075005
0.0675786
0.0606005
0.0540767
0.0480094
0.0423986
0.0372344
0.0325285
0.028193
0.0245074
0.020301
0.020301
5.82414e-06
-5.82414e-06
4.36942e-05
0.000440584
0.00170024
0.00429825
0.00846288
0.0141997
0.0213849
0.0298313
0.039327
0.0496587
0.0606261
0.0720499
0.0837747
0.0956693
0.107626
0.119555
0.131388
0.143067
0.154551
0.165807
0.17681
0.187542
0.197993
0.208154
0.218022
0.227596
0.236875
0.245864
0.254565
0.262982
0.271121
0.278985
0.286578
0.293902
0.300959
0.307749
0.314269
0.320513
0.326475
0.332143
0.337503
0.34254
0.347233
0.351559
0.355494
0.359009
0.362078
0.364669
0.366752
0.368298
0.369279
0.369666
0.369436
0.368568
0.367044
0.364851
0.36198
0.358428
0.354197
0.349294
0.343732
0.337528
0.330705
0.323292
0.31532
0.306825
0.297849
0.288434
0.278627
0.268476
0.25803
0.247342
0.236463
0.225444
0.214339
0.203198
0.192072
0.181008
0.170053
0.159253
0.148649
0.138282
0.128187
0.118398
0.108947
0.0998597
0.0911607
0.0828702
0.075005
0.0675786
0.0606005
0.0540767
0.0480094
0.0423986
0.0372344
0.0325285
0.028193
0.0245074
0.020301
0.020301
