# vtk DataFile Version 2.0
FlowField
ASCII
DATASET STRUCTURED_GRID
DIMENSIONS 102 1 12 
POINTS 1224 double
0 0 0
0.4 0 0
0.8 0 0
1.2 0 0
1.6 0 0
2 0 0
2.4 0 0
2.8 0 0
3.2 0 0
3.6 0 0
4 0 0
4.4 0 0
4.8 0 0
5.2 0 0
5.6 0 0
6 0 0
6.4 0 0
6.8 0 0
7.2 0 0
7.6 0 0
8 0 0
8.4 0 0
8.8 0 0
9.2 0 0
9.6 0 0
10 0 0
10.4 0 0
10.8 0 0
11.2 0 0
11.6 0 0
12 0 0
12.4 0 0
12.8 0 0
13.2 0 0
13.6 0 0
14 0 0
14.4 0 0
14.8 0 0
15.2 0 0
15.6 0 0
16 0 0
16.4 0 0
16.8 0 0
17.2 0 0
17.6 0 0
18 0 0
18.4 0 0
18.8 0 0
19.2 0 0
19.6 0 0
20 0 0
20.4 0 0
20.8 0 0
21.2 0 0
21.6 0 0
22 0 0
22.4 0 0
22.8 0 0
23.2 0 0
23.6 0 0
24 0 0
24.4 0 0
24.8 0 0
25.2 0 0
25.6 0 0
26 0 0
26.4 0 0
26.8 0 0
27.2 0 0
27.6 0 0
28 0 0
28.4 0 0
28.8 0 0
29.2 0 0
29.6 0 0
30 0 0
30.4 0 0
30.8 0 0
31.2 0 0
31.6 0 0
32 0 0
32.4 0 0
32.8 0 0
33.2 0 0
33.6 0 0
34 0 0
34.4 0 0
34.8 0 0
35.2 0 0
35.6 0 0
36 0 0
36.4 0 0
36.8 0 0
37.2 0 0
37.6 0 0
38 0 0
38.4 0 0
38.8 0 0
39.2 0 0
39.6 0 0
40 0 0
40.4 0 0
0 0.1 0
0.4 0.1 0
0.8 0.1 0
1.2 0.1 0
1.6 0.1 0
2 0.1 0
2.4 0.1 0
2.8 0.1 0
3.2 0.1 0
3.6 0.1 0
4 0.1 0
4.4 0.1 0
4.8 0.1 0
5.2 0.1 0
5.6 0.1 0
6 0.1 0
6.4 0.1 0
6.8 0.1 0
7.2 0.1 0
7.6 0.1 0
8 0.1 0
8.4 0.1 0
8.8 0.1 0
9.2 0.1 0
9.6 0.1 0
10 0.1 0
10.4 0.1 0
10.8 0.1 0
11.2 0.1 0
11.6 0.1 0
12 0.1 0
12.4 0.1 0
12.8 0.1 0
13.2 0.1 0
13.6 0.1 0
14 0.1 0
14.4 0.1 0
14.8 0.1 0
15.2 0.1 0
15.6 0.1 0
16 0.1 0
16.4 0.1 0
16.8 0.1 0
17.2 0.1 0
17.6 0.1 0
18 0.1 0
18.4 0.1 0
18.8 0.1 0
19.2 0.1 0
19.6 0.1 0
20 0.1 0
20.4 0.1 0
20.8 0.1 0
21.2 0.1 0
21.6 0.1 0
22 0.1 0
22.4 0.1 0
22.8 0.1 0
23.2 0.1 0
23.6 0.1 0
24 0.1 0
24.4 0.1 0
24.8 0.1 0
25.2 0.1 0
25.6 0.1 0
26 0.1 0
26.4 0.1 0
26.8 0.1 0
27.2 0.1 0
27.6 0.1 0
28 0.1 0
28.4 0.1 0
28.8 0.1 0
29.2 0.1 0
29.6 0.1 0
30 0.1 0
30.4 0.1 0
30.8 0.1 0
31.2 0.1 0
31.6 0.1 0
32 0.1 0
32.4 0.1 0
32.8 0.1 0
33.2 0.1 0
33.6 0.1 0
34 0.1 0
34.4 0.1 0
34.8 0.1 0
35.2 0.1 0
35.6 0.1 0
36 0.1 0
36.4 0.1 0
36.8 0.1 0
37.2 0.1 0
37.6 0.1 0
38 0.1 0
38.4 0.1 0
38.8 0.1 0
39.2 0.1 0
39.6 0.1 0
40 0.1 0
40.4 0.1 0
0 0.2 0
0.4 0.2 0
0.8 0.2 0
1.2 0.2 0
1.6 0.2 0
2 0.2 0
2.4 0.2 0
2.8 0.2 0
3.2 0.2 0
3.6 0.2 0
4 0.2 0
4.4 0.2 0
4.8 0.2 0
5.2 0.2 0
5.6 0.2 0
6 0.2 0
6.4 0.2 0
6.8 0.2 0
7.2 0.2 0
7.6 0.2 0
8 0.2 0
8.4 0.2 0
8.8 0.2 0
9.2 0.2 0
9.6 0.2 0
10 0.2 0
10.4 0.2 0
10.8 0.2 0
11.2 0.2 0
11.6 0.2 0
12 0.2 0
12.4 0.2 0
12.8 0.2 0
13.2 0.2 0
13.6 0.2 0
14 0.2 0
14.4 0.2 0
14.8 0.2 0
15.2 0.2 0
15.6 0.2 0
16 0.2 0
16.4 0.2 0
16.8 0.2 0
17.2 0.2 0
17.6 0.2 0
18 0.2 0
18.4 0.2 0
18.8 0.2 0
19.2 0.2 0
19.6 0.2 0
20 0.2 0
20.4 0.2 0
20.8 0.2 0
21.2 0.2 0
21.6 0.2 0
22 0.2 0
22.4 0.2 0
22.8 0.2 0
23.2 0.2 0
23.6 0.2 0
24 0.2 0
24.4 0.2 0
24.8 0.2 0
25.2 0.2 0
25.6 0.2 0
26 0.2 0
26.4 0.2 0
26.8 0.2 0
27.2 0.2 0
27.6 0.2 0
28 0.2 0
28.4 0.2 0
28.8 0.2 0
29.2 0.2 0
29.6 0.2 0
30 0.2 0
30.4 0.2 0
30.8 0.2 0
31.2 0.2 0
31.6 0.2 0
32 0.2 0
32.4 0.2 0
32.8 0.2 0
33.2 0.2 0
33.6 0.2 0
34 0.2 0
34.4 0.2 0
34.8 0.2 0
35.2 0.2 0
35.6 0.2 0
36 0.2 0
36.4 0.2 0
36.8 0.2 0
37.2 0.2 0
37.6 0.2 0
38 0.2 0
38.4 0.2 0
38.8 0.2 0
39.2 0.2 0
39.6 0.2 0
40 0.2 0
40.4 0.2 0
0 0.3 0
0.4 0.3 0
0.8 0.3 0
1.2 0.3 0
1.6 0.3 0
2 0.3 0
2.4 0.3 0
2.8 0.3 0
3.2 0.3 0
3.6 0.3 0
4 0.3 0
4.4 0.3 0
4.8 0.3 0
5.2 0.3 0
5.6 0.3 0
6 0.3 0
6.4 0.3 0
6.8 0.3 0
7.2 0.3 0
7.6 0.3 0
8 0.3 0
8.4 0.3 0
8.8 0.3 0
9.2 0.3 0
9.6 0.3 0
10 0.3 0
10.4 0.3 0
10.8 0.3 0
11.2 0.3 0
11.6 0.3 0
12 0.3 0
12.4 0.3 0
12.8 0.3 0
13.2 0.3 0
13.6 0.3 0
14 0.3 0
14.4 0.3 0
14.8 0.3 0
15.2 0.3 0
15.6 0.3 0
16 0.3 0
16.4 0.3 0
16.8 0.3 0
17.2 0.3 0
17.6 0.3 0
18 0.3 0
18.4 0.3 0
18.8 0.3 0
19.2 0.3 0
19.6 0.3 0
20 0.3 0
20.4 0.3 0
20.8 0.3 0
21.2 0.3 0
21.6 0.3 0
22 0.3 0
22.4 0.3 0
22.8 0.3 0
23.2 0.3 0
23.6 0.3 0
24 0.3 0
24.4 0.3 0
24.8 0.3 0
25.2 0.3 0
25.6 0.3 0
26 0.3 0
26.4 0.3 0
26.8 0.3 0
27.2 0.3 0
27.6 0.3 0
28 0.3 0
28.4 0.3 0
28.8 0.3 0
29.2 0.3 0
29.6 0.3 0
30 0.3 0
30.4 0.3 0
30.8 0.3 0
31.2 0.3 0
31.6 0.3 0
32 0.3 0
32.4 0.3 0
32.8 0.3 0
33.2 0.3 0
33.6 0.3 0
34 0.3 0
34.4 0.3 0
34.8 0.3 0
35.2 0.3 0
35.6 0.3 0
36 0.3 0
36.4 0.3 0
36.8 0.3 0
37.2 0.3 0
37.6 0.3 0
38 0.3 0
38.4 0.3 0
38.8 0.3 0
39.2 0.3 0
39.6 0.3 0
40 0.3 0
40.4 0.3 0
0 0.4 0
0.4 0.4 0
0.8 0.4 0
1.2 0.4 0
1.6 0.4 0
2 0.4 0
2.4 0.4 0
2.8 0.4 0
3.2 0.4 0
3.6 0.4 0
4 0.4 0
4.4 0.4 0
4.8 0.4 0
5.2 0.4 0
5.6 0.4 0
6 0.4 0
6.4 0.4 0
6.8 0.4 0
7.2 0.4 0
7.6 0.4 0
8 0.4 0
8.4 0.4 0
8.8 0.4 0
9.2 0.4 0
9.6 0.4 0
10 0.4 0
10.4 0.4 0
10.8 0.4 0
11.2 0.4 0
11.6 0.4 0
12 0.4 0
12.4 0.4 0
12.8 0.4 0
13.2 0.4 0
13.6 0.4 0
14 0.4 0
14.4 0.4 0
14.8 0.4 0
15.2 0.4 0
15.6 0.4 0
16 0.4 0
16.4 0.4 0
16.8 0.4 0
17.2 0.4 0
17.6 0.4 0
18 0.4 0
18.4 0.4 0
18.8 0.4 0
19.2 0.4 0
19.6 0.4 0
20 0.4 0
20.4 0.4 0
20.8 0.4 0
21.2 0.4 0
21.6 0.4 0
22 0.4 0
22.4 0.4 0
22.8 0.4 0
23.2 0.4 0
23.6 0.4 0
24 0.4 0
24.4 0.4 0
24.8 0.4 0
25.2 0.4 0
25.6 0.4 0
26 0.4 0
26.4 0.4 0
26.8 0.4 0
27.2 0.4 0
27.6 0.4 0
28 0.4 0
28.4 0.4 0
28.8 0.4 0
29.2 0.4 0
29.6 0.4 0
30 0.4 0
30.4 0.4 0
30.8 0.4 0
31.2 0.4 0
31.6 0.4 0
32 0.4 0
32.4 0.4 0
32.8 0.4 0
33.2 0.4 0
33.6 0.4 0
34 0.4 0
34.4 0.4 0
34.8 0.4 0
35.2 0.4 0
35.6 0.4 0
36 0.4 0
36.4 0.4 0
36.8 0.4 0
37.2 0.4 0
37.6 0.4 0
38 0.4 0
38.4 0.4 0
38.8 0.4 0
39.2 0.4 0
39.6 0.4 0
40 0.4 0
40.4 0.4 0
0 0.5 0
0.4 0.5 0
0.8 0.5 0
1.2 0.5 0
1.6 0.5 0
2 0.5 0
2.4 0.5 0
2.8 0.5 0
3.2 0.5 0
3.6 0.5 0
4 0.5 0
4.4 0.5 0
4.8 0.5 0
5.2 0.5 0
5.6 0.5 0
6 0.5 0
6.4 0.5 0
6.8 0.5 0
7.2 0.5 0
7.6 0.5 0
8 0.5 0
8.4 0.5 0
8.8 0.5 0
9.2 0.5 0
9.6 0.5 0
10 0.5 0
10.4 0.5 0
10.8 0.5 0
11.2 0.5 0
11.6 0.5 0
12 0.5 0
12.4 0.5 0
12.8 0.5 0
13.2 0.5 0
13.6 0.5 0
14 0.5 0
14.4 0.5 0
14.8 0.5 0
15.2 0.5 0
15.6 0.5 0
16 0.5 0
16.4 0.5 0
16.8 0.5 0
17.2 0.5 0
17.6 0.5 0
18 0.5 0
18.4 0.5 0
18.8 0.5 0
19.2 0.5 0
19.6 0.5 0
20 0.5 0
20.4 0.5 0
20.8 0.5 0
21.2 0.5 0
21.6 0.5 0
22 0.5 0
22.4 0.5 0
22.8 0.5 0
23.2 0.5 0
23.6 0.5 0
24 0.5 0
24.4 0.5 0
24.8 0.5 0
25.2 0.5 0
25.6 0.5 0
26 0.5 0
26.4 0.5 0
26.8 0.5 0
27.2 0.5 0
27.6 0.5 0
28 0.5 0
28.4 0.5 0
28.8 0.5 0
29.2 0.5 0
29.6 0.5 0
30 0.5 0
30.4 0.5 0
30.8 0.5 0
31.2 0.5 0
31.6 0.5 0
32 0.5 0
32.4 0.5 0
32.8 0.5 0
33.2 0.5 0
33.6 0.5 0
34 0.5 0
34.4 0.5 0
34.8 0.5 0
35.2 0.5 0
35.6 0.5 0
36 0.5 0
36.4 0.5 0
36.8 0.5 0
37.2 0.5 0
37.6 0.5 0
38 0.5 0
38.4 0.5 0
38.8 0.5 0
39.2 0.5 0
39.6 0.5 0
40 0.5 0
40.4 0.5 0
0 0.6 0
0.4 0.6 0
0.8 0.6 0
1.2 0.6 0
1.6 0.6 0
2 0.6 0
2.4 0.6 0
2.8 0.6 0
3.2 0.6 0
3.6 0.6 0
4 0.6 0
4.4 0.6 0
4.8 0.6 0
5.2 0.6 0
5.6 0.6 0
6 0.6 0
6.4 0.6 0
6.8 0.6 0
7.2 0.6 0
7.6 0.6 0
8 0.6 0
8.4 0.6 0
8.8 0.6 0
9.2 0.6 0
9.6 0.6 0
10 0.6 0
10.4 0.6 0
10.8 0.6 0
11.2 0.6 0
11.6 0.6 0
12 0.6 0
12.4 0.6 0
12.8 0.6 0
13.2 0.6 0
13.6 0.6 0
14 0.6 0
14.4 0.6 0
14.8 0.6 0
15.2 0.6 0
15.6 0.6 0
16 0.6 0
16.4 0.6 0
16.8 0.6 0
17.2 0.6 0
17.6 0.6 0
18 0.6 0
18.4 0.6 0
18.8 0.6 0
19.2 0.6 0
19.6 0.6 0
20 0.6 0
20.4 0.6 0
20.8 0.6 0
21.2 0.6 0
21.6 0.6 0
22 0.6 0
22.4 0.6 0
22.8 0.6 0
23.2 0.6 0
23.6 0.6 0
24 0.6 0
24.4 0.6 0
24.8 0.6 0
25.2 0.6 0
25.6 0.6 0
26 0.6 0
26.4 0.6 0
26.8 0.6 0
27.2 0.6 0
27.6 0.6 0
28 0.6 0
28.4 0.6 0
28.8 0.6 0
29.2 0.6 0
29.6 0.6 0
30 0.6 0
30.4 0.6 0
30.8 0.6 0
31.2 0.6 0
31.6 0.6 0
32 0.6 0
32.4 0.6 0
32.8 0.6 0
33.2 0.6 0
33.6 0.6 0
34 0.6 0
34.4 0.6 0
34.8 0.6 0
35.2 0.6 0
35.6 0.6 0
36 0.6 0
36.4 0.6 0
36.8 0.6 0
37.2 0.6 0
37.6 0.6 0
38 0.6 0
38.4 0.6 0
38.8 0.6 0
39.2 0.6 0
39.6 0.6 0
40 0.6 0
40.4 0.6 0
0 0.7 0
0.4 0.7 0
0.8 0.7 0
1.2 0.7 0
1.6 0.7 0
2 0.7 0
2.4 0.7 0
2.8 0.7 0
3.2 0.7 0
3.6 0.7 0
4 0.7 0
4.4 0.7 0
4.8 0.7 0
5.2 0.7 0
5.6 0.7 0
6 0.7 0
6.4 0.7 0
6.8 0.7 0
7.2 0.7 0
7.6 0.7 0
8 0.7 0
8.4 0.7 0
8.8 0.7 0
9.2 0.7 0
9.6 0.7 0
10 0.7 0
10.4 0.7 0
10.8 0.7 0
11.2 0.7 0
11.6 0.7 0
12 0.7 0
12.4 0.7 0
12.8 0.7 0
13.2 0.7 0
13.6 0.7 0
14 0.7 0
14.4 0.7 0
14.8 0.7 0
15.2 0.7 0
15.6 0.7 0
16 0.7 0
16.4 0.7 0
16.8 0.7 0
17.2 0.7 0
17.6 0.7 0
18 0.7 0
18.4 0.7 0
18.8 0.7 0
19.2 0.7 0
19.6 0.7 0
20 0.7 0
20.4 0.7 0
20.8 0.7 0
21.2 0.7 0
21.6 0.7 0
22 0.7 0
22.4 0.7 0
22.8 0.7 0
23.2 0.7 0
23.6 0.7 0
24 0.7 0
24.4 0.7 0
24.8 0.7 0
25.2 0.7 0
25.6 0.7 0
26 0.7 0
26.4 0.7 0
26.8 0.7 0
27.2 0.7 0
27.6 0.7 0
28 0.7 0
28.4 0.7 0
28.8 0.7 0
29.2 0.7 0
29.6 0.7 0
30 0.7 0
30.4 0.7 0
30.8 0.7 0
31.2 0.7 0
31.6 0.7 0
32 0.7 0
32.4 0.7 0
32.8 0.7 0
33.2 0.7 0
33.6 0.7 0
34 0.7 0
34.4 0.7 0
34.8 0.7 0
35.2 0.7 0
35.6 0.7 0
36 0.7 0
36.4 0.7 0
36.8 0.7 0
37.2 0.7 0
37.6 0.7 0
38 0.7 0
38.4 0.7 0
38.8 0.7 0
39.2 0.7 0
39.6 0.7 0
40 0.7 0
40.4 0.7 0
0 0.8 0
0.4 0.8 0
0.8 0.8 0
1.2 0.8 0
1.6 0.8 0
2 0.8 0
2.4 0.8 0
2.8 0.8 0
3.2 0.8 0
3.6 0.8 0
4 0.8 0
4.4 0.8 0
4.8 0.8 0
5.2 0.8 0
5.6 0.8 0
6 0.8 0
6.4 0.8 0
6.8 0.8 0
7.2 0.8 0
7.6 0.8 0
8 0.8 0
8.4 0.8 0
8.8 0.8 0
9.2 0.8 0
9.6 0.8 0
10 0.8 0
10.4 0.8 0
10.8 0.8 0
11.2 0.8 0
11.6 0.8 0
12 0.8 0
12.4 0.8 0
12.8 0.8 0
13.2 0.8 0
13.6 0.8 0
14 0.8 0
14.4 0.8 0
14.8 0.8 0
15.2 0.8 0
15.6 0.8 0
16 0.8 0
16.4 0.8 0
16.8 0.8 0
17.2 0.8 0
17.6 0.8 0
18 0.8 0
18.4 0.8 0
18.8 0.8 0
19.2 0.8 0
19.6 0.8 0
20 0.8 0
20.4 0.8 0
20.8 0.8 0
21.2 0.8 0
21.6 0.8 0
22 0.8 0
22.4 0.8 0
22.8 0.8 0
23.2 0.8 0
23.6 0.8 0
24 0.8 0
24.4 0.8 0
24.8 0.8 0
25.2 0.8 0
25.6 0.8 0
26 0.8 0
26.4 0.8 0
26.8 0.8 0
27.2 0.8 0
27.6 0.8 0
28 0.8 0
28.4 0.8 0
28.8 0.8 0
29.2 0.8 0
29.6 0.8 0
30 0.8 0
30.4 0.8 0
30.8 0.8 0
31.2 0.8 0
31.6 0.8 0
32 0.8 0
32.4 0.8 0
32.8 0.8 0
33.2 0.8 0
33.6 0.8 0
34 0.8 0
34.4 0.8 0
34.8 0.8 0
35.2 0.8 0
35.6 0.8 0
36 0.8 0
36.4 0.8 0
36.8 0.8 0
37.2 0.8 0
37.6 0.8 0
38 0.8 0
38.4 0.8 0
38.8 0.8 0
39.2 0.8 0
39.6 0.8 0
40 0.8 0
40.4 0.8 0
0 0.9 0
0.4 0.9 0
0.8 0.9 0
1.2 0.9 0
1.6 0.9 0
2 0.9 0
2.4 0.9 0
2.8 0.9 0
3.2 0.9 0
3.6 0.9 0
4 0.9 0
4.4 0.9 0
4.8 0.9 0
5.2 0.9 0
5.6 0.9 0
6 0.9 0
6.4 0.9 0
6.8 0.9 0
7.2 0.9 0
7.6 0.9 0
8 0.9 0
8.4 0.9 0
8.8 0.9 0
9.2 0.9 0
9.6 0.9 0
10 0.9 0
10.4 0.9 0
10.8 0.9 0
11.2 0.9 0
11.6 0.9 0
12 0.9 0
12.4 0.9 0
12.8 0.9 0
13.2 0.9 0
13.6 0.9 0
14 0.9 0
14.4 0.9 0
14.8 0.9 0
15.2 0.9 0
15.6 0.9 0
16 0.9 0
16.4 0.9 0
16.8 0.9 0
17.2 0.9 0
17.6 0.9 0
18 0.9 0
18.4 0.9 0
18.8 0.9 0
19.2 0.9 0
19.6 0.9 0
20 0.9 0
20.4 0.9 0
20.8 0.9 0
21.2 0.9 0
21.6 0.9 0
22 0.9 0
22.4 0.9 0
22.8 0.9 0
23.2 0.9 0
23.6 0.9 0
24 0.9 0
24.4 0.9 0
24.8 0.9 0
25.2 0.9 0
25.6 0.9 0
26 0.9 0
26.4 0.9 0
26.8 0.9 0
27.2 0.9 0
27.6 0.9 0
28 0.9 0
28.4 0.9 0
28.8 0.9 0
29.2 0.9 0
29.6 0.9 0
30 0.9 0
30.4 0.9 0
30.8 0.9 0
31.2 0.9 0
31.6 0.9 0
32 0.9 0
32.4 0.9 0
32.8 0.9 0
33.2 0.9 0
33.6 0.9 0
34 0.9 0
34.4 0.9 0
34.8 0.9 0
35.2 0.9 0
35.6 0.9 0
36 0.9 0
36.4 0.9 0
36.8 0.9 0
37.2 0.9 0
37.6 0.9 0
38 0.9 0
38.4 0.9 0
38.8 0.9 0
39.2 0.9 0
39.6 0.9 0
40 0.9 0
40.4 0.9 0
0 1 0
0.4 1 0
0.8 1 0
1.2 1 0
1.6 1 0
2 1 0
2.4 1 0
2.8 1 0
3.2 1 0
3.6 1 0
4 1 0
4.4 1 0
4.8 1 0
5.2 1 0
5.6 1 0
6 1 0
6.4 1 0
6.8 1 0
7.2 1 0
7.6 1 0
8 1 0
8.4 1 0
8.8 1 0
9.2 1 0
9.6 1 0
10 1 0
10.4 1 0
10.8 1 0
11.2 1 0
11.6 1 0
12 1 0
12.4 1 0
12.8 1 0
13.2 1 0
13.6 1 0
14 1 0
14.4 1 0
14.8 1 0
15.2 1 0
15.6 1 0
16 1 0
16.4 1 0
16.8 1 0
17.2 1 0
17.6 1 0
18 1 0
18.4 1 0
18.8 1 0
19.2 1 0
19.6 1 0
20 1 0
20.4 1 0
20.8 1 0
21.2 1 0
21.6 1 0
22 1 0
22.4 1 0
22.8 1 0
23.2 1 0
23.6 1 0
24 1 0
24.4 1 0
24.8 1 0
25.2 1 0
25.6 1 0
26 1 0
26.4 1 0
26.8 1 0
27.2 1 0
27.6 1 0
28 1 0
28.4 1 0
28.8 1 0
29.2 1 0
29.6 1 0
30 1 0
30.4 1 0
30.8 1 0
31.2 1 0
31.6 1 0
32 1 0
32.4 1 0
32.8 1 0
33.2 1 0
33.6 1 0
34 1 0
34.4 1 0
34.8 1 0
35.2 1 0
35.6 1 0
36 1 0
36.4 1 0
36.8 1 0
37.2 1 0
37.6 1 0
38 1 0
38.4 1 0
38.8 1 0
39.2 1 0
39.6 1 0
40 1 0
40.4 1 0
0 1.1 0
0.4 1.1 0
0.8 1.1 0
1.2 1.1 0
1.6 1.1 0
2 1.1 0
2.4 1.1 0
2.8 1.1 0
3.2 1.1 0
3.6 1.1 0
4 1.1 0
4.4 1.1 0
4.8 1.1 0
5.2 1.1 0
5.6 1.1 0
6 1.1 0
6.4 1.1 0
6.8 1.1 0
7.2 1.1 0
7.6 1.1 0
8 1.1 0
8.4 1.1 0
8.8 1.1 0
9.2 1.1 0
9.6 1.1 0
10 1.1 0
10.4 1.1 0
10.8 1.1 0
11.2 1.1 0
11.6 1.1 0
12 1.1 0
12.4 1.1 0
12.8 1.1 0
13.2 1.1 0
13.6 1.1 0
14 1.1 0
14.4 1.1 0
14.8 1.1 0
15.2 1.1 0
15.6 1.1 0
16 1.1 0
16.4 1.1 0
16.8 1.1 0
17.2 1.1 0
17.6 1.1 0
18 1.1 0
18.4 1.1 0
18.8 1.1 0
19.2 1.1 0
19.6 1.1 0
20 1.1 0
20.4 1.1 0
20.8 1.1 0
21.2 1.1 0
21.6 1.1 0
22 1.1 0
22.4 1.1 0
22.8 1.1 0
23.2 1.1 0
23.6 1.1 0
24 1.1 0
24.4 1.1 0
24.8 1.1 0
25.2 1.1 0
25.6 1.1 0
26 1.1 0
26.4 1.1 0
26.8 1.1 0
27.2 1.1 0
27.6 1.1 0
28 1.1 0
28.4 1.1 0
28.8 1.1 0
29.2 1.1 0
29.6 1.1 0
30 1.1 0
30.4 1.1 0
30.8 1.1 0
31.2 1.1 0
31.6 1.1 0
32 1.1 0
32.4 1.1 0
32.8 1.1 0
33.2 1.1 0
33.6 1.1 0
34 1.1 0
34.4 1.1 0
34.8 1.1 0
35.2 1.1 0
35.6 1.1 0
36 1.1 0
36.4 1.1 0
36.8 1.1 0
37.2 1.1 0
37.6 1.1 0
38 1.1 0
38.4 1.1 0
38.8 1.1 0
39.2 1.1 0
39.6 1.1 0
40 1.1 0
40.4 1.1 0

POINT_DATA 1224

SCALARS phi double
LOOKUP_TABLE default
0.999994
1.00001
0.999956
0.999558
0.998306
0.995691
0.991502
0.985892
0.978961
0.970106
0.957789
0.939946
0.914751
0.881226
0.839474
0.790534
0.73606
0.677956
0.618098
0.558139
0.499431
0.442998
0.389566
0.339607
0.293394
0.251059
0.212632
0.178081
0.14733
0.120273
0.0967705
0.0766525
0.0597102
0.0456961
0.034327
0.0252924
0.0182671
0.0129256
0.00895721
0.00607728
0.0040363
0.00262393
0.00166958
0.00103982
0.000633946
0.00037839
0.000221153
0.000126589
7.0981e-05
3.8997e-05
2.09976e-05
1.10832e-05
5.7363e-06
2.91195e-06
1.45022e-06
7.08762e-07
3.40013e-07
1.60152e-07
7.40845e-08
3.36657e-08
1.50323e-08
6.597e-09
2.84614e-09
1.20743e-09
5.03801e-10
2.068e-10
8.35282e-11
3.32048e-11
1.29941e-11
5.0068e-12
1.8999e-12
7.10142e-13
2.61508e-13
9.48933e-14
3.39371e-14
1.19641e-14
4.15843e-15
1.42527e-15
4.81787e-16
1.60648e-16
5.28477e-17
1.71544e-17
5.49526e-18
1.73752e-18
5.4233e-19
1.67129e-19
5.0857e-20
1.52835e-20
4.53654e-21
1.33019e-21
3.85337e-22
1.10297e-22
3.11982e-23
8.7216e-24
2.40996e-24
6.58296e-25
1.77778e-25
4.74709e-26
1.25345e-26
3.27662e-27
8.02551e-28
8.02551e-28
0.999994
1.00001
0.999956
0.999558
0.998306
0.995691
0.991502
0.985892
0.978961
0.970106
0.957789
0.939946
0.914751
0.881226
0.839474
0.790534
0.73606
0.677956
0.618098
0.558139
0.499431
0.442998
0.389566
0.339607
0.293394
0.251059
0.212632
0.178081
0.14733
0.120273
0.0967705
0.0766525
0.0597102
0.0456961
0.034327
0.0252924
0.0182671
0.0129256
0.00895721
0.00607728
0.0040363
0.00262393
0.00166958
0.00103982
0.000633946
0.00037839
0.000221153
0.000126589
7.0981e-05
3.8997e-05
2.09976e-05
1.10832e-05
5.7363e-06
2.91195e-06
1.45022e-06
7.08762e-07
3.40013e-07
1.60152e-07
7.40845e-08
3.36657e-08
1.50323e-08
6.597e-09
2.84614e-09
1.20743e-09
5.03801e-10
2.068e-10
8.35282e-11
3.32048e-11
1.29941e-11
5.0068e-12
1.8999e-12
7.10142e-13
2.61508e-13
9.48933e-14
3.39371e-14
1.19641e-14
4.15843e-15
1.42527e-15
4.81787e-16
1.60648e-16
5.28477e-17
1.71544e-17
5.49526e-18
1.73752e-18
5.4233e-19
1.67129e-19
5.0857e-20
1.52835e-20
4.53654e-21
1.33019e-21
3.85337e-22
1.10297e-22
3.11982e-23
8.7216e-24
2.40996e-24
6.58296e-25
1.77778e-25
4.74709e-26
1.25345e-26
3.27662e-27
8.02551e-28
8.02551e-28
0.99999
1.00001
0.999544
0.99817
0.995439
0.991089
0.985106
0.977699
0.969153
0.95951
0.948273
0.934374
0.916451
0.89327
0.864077
0.828757
0.787806
0.742177
0.693086
0.641824
0.589621
0.537556
0.486507
0.437145
0.389944
0.345213
0.303136
0.263812
0.227297
0.193637
0.162879
0.135081
0.110291
0.0885319
0.0697803
0.0539458
0.0408668
0.0303141
0.0220052
0.0156252
0.0108498
0.00736604
0.00488918
0.00317273
0.00201309
0.00124907
0.000758029
0.000450045
0.000261459
0.000148678
8.2777e-05
4.51352e-05
2.411e-05
1.26207e-05
6.47602e-06
3.25838e-06
1.60803e-06
7.786e-07
3.6999e-07
1.72601e-07
7.90681e-08
3.55779e-08
1.57289e-08
6.8339e-09
2.9188e-09
1.22579e-09
5.06298e-10
2.05722e-10
8.22509e-11
3.23656e-11
1.25373e-11
4.78186e-12
1.79619e-12
6.64599e-13
2.42272e-13
8.70296e-14
3.0813e-14
1.07543e-14
3.70075e-15
1.25583e-15
4.20323e-16
1.38776e-16
4.52058e-17
1.45309e-17
4.60975e-18
1.44348e-18
4.46228e-19
1.362e-19
4.10519e-20
1.22204e-20
3.59323e-21
1.04375e-21
2.99549e-22
8.49486e-23
2.38075e-23
6.59466e-24
1.80568e-24
4.88777e-25
1.30809e-25
3.46563e-26
8.57217e-27
8.57217e-27
1.00047
0.999533
0.995342
0.988481
0.979265
0.968244
0.956029
0.94314
0.929974
0.916768
0.903517
0.889898
0.875291
0.858893
0.839896
0.817657
0.791807
0.762293
0.729347
0.693429
0.655143
0.615154
0.574121
0.532635
0.491188
0.450148
0.409767
0.370207
0.331583
0.294015
0.257673
0.222808
0.18975
0.158884
0.130602
0.105244
0.0830474
0.0641113
0.0483859
0.0356828
0.0257045
0.0180839
0.0124244
0.00833639
0.00546324
0.00349759
0.00218793
0.00133771
0.000799611
0.000467435
0.000267319
0.000149607
8.19657e-05
4.39765e-05
2.31134e-05
1.19044e-05
6.0103e-06
2.97558e-06
1.44502e-06
6.8855e-07
3.22028e-07
1.47869e-07
6.66821e-08
2.95404e-08
1.28593e-08
5.50213e-09
2.31455e-09
9.57498e-10
3.89628e-10
1.55994e-10
6.14626e-11
2.38375e-11
9.10229e-12
3.42274e-12
1.26772e-12
4.62575e-13
1.66318e-13
5.89357e-14
2.05863e-14
7.08956e-15
2.40756e-15
8.06357e-16
2.66405e-16
8.68346e-17
2.79285e-17
8.86493e-18
2.77741e-18
8.59029e-19
2.62325e-19
7.91036e-20
2.3558e-20
6.92983e-21
2.01376e-21
5.78158e-22
1.64019e-22
4.59839e-23
1.27418e-23
3.48996e-24
9.44956e-25
2.53281e-25
6.32594e-26
6.32594e-26
1.00913
0.990874
0.963593
0.936344
0.910573
0.886791
0.865195
0.845725
0.828186
0.812335
0.797912
0.784608
0.772033
0.759709
0.747088
0.733615
0.718782
0.702181
0.683542
0.662742
0.639799
0.614848
0.588105
0.559823
0.530249
0.499581
0.467946
0.435394
0.401932
0.367579
0.332432
0.296732
0.260897
0.225518
0.191309
0.159024
0.129362
0.102879
0.0799256
0.0606244
0.0448808
0.0324223
0.0228548
0.0157213
0.0105545
0.00691698
0.00442632
0.0027666
0.00168954
0.00100847
0.000588545
0.000335956
0.000187641
0.000102584
5.49148e-05
2.87952e-05
1.47952e-05
7.45155e-06
3.67995e-06
1.78259e-06
8.47255e-07
3.95247e-07
1.81028e-07
8.14285e-08
3.59819e-08
1.5624e-08
6.66833e-09
2.79817e-09
1.15472e-09
4.68737e-10
1.87214e-10
7.3588e-11
2.8473e-11
1.08471e-11
4.06947e-12
1.50384e-12
5.47507e-13
1.96422e-13
6.9452e-14
2.42078e-14
8.31916e-15
2.81926e-15
9.42315e-16
3.10696e-16
1.0107e-16
3.24437e-17
1.02783e-17
3.21414e-18
9.92253e-19
3.02453e-19
9.10395e-20
2.70645e-20
7.94738e-21
2.30548e-21
6.6079e-22
1.87149e-22
5.23824e-23
1.44913e-23
3.96273e-24
1.07267e-24
2.70251e-25
2.70251e-25
1.10476
0.895237
0.791779
0.734418
0.698349
0.673559
0.655471
0.641661
0.630712
0.621754
0.614226
0.607745
0.60201
0.59675
0.591681
0.586507
0.580913
0.574591
0.567254
0.558658
0.548615
0.536999
0.523747
0.508834
0.492252
0.473972
0.453919
0.431955
0.407904
0.381605
0.352992
0.322178
0.289522
0.255643
0.221385
0.187728
0.15567
0.126105
0.0997194
0.0769343
0.0578917
0.0424819
0.0304005
0.0212172
0.0144447
0.00959509
0.00622073
0.00393759
0.00243428
0.00147037
0.00086809
0.000501133
0.000282984
0.000156372
8.45879e-05
4.48102e-05
2.32554e-05
1.18278e-05
5.89756e-06
2.88388e-06
1.38345e-06
6.51284e-07
3.00979e-07
1.36582e-07
6.0879e-08
2.66617e-08
1.14755e-08
4.85555e-09
2.02023e-09
8.26743e-10
3.32853e-10
1.31872e-10
5.14244e-11
1.97425e-11
7.46354e-12
2.77901e-12
1.01936e-12
3.6842e-13
1.31227e-13
4.60732e-14
1.59477e-14
5.44318e-15
1.83225e-15
6.08374e-16
1.99287e-16
6.44143e-17
2.05469e-17
6.46903e-18
2.0106e-18
6.16972e-19
1.86949e-19
5.59447e-20
1.6536e-20
4.82828e-21
1.39285e-21
3.97025e-22
1.11838e-22
3.11363e-23
8.56822e-24
2.33398e-24
5.91402e-25
5.91402e-25
-0.104763
0.104763
0.208221
0.265582
0.301651
0.326442
0.34453
0.358339
0.369286
0.378249
0.385787
0.392273
0.397947
0.402962
0.407397
0.411267
0.41453
0.417099
0.418849
0.419631
0.41929
0.417672
0.414636
0.410046
0.40376
0.395606
0.385364
0.372761
0.357501
0.339321
0.318076
0.293827
0.266904
0.237931
0.20778
0.177485
0.148116
0.120649
0.0958628
0.0742666
0.0560861
0.0412864
0.029626
0.0207263
0.0141403
0.00941034
0.00611098
0.00387376
0.00239793
0.00145009
0.000857008
0.000495198
0.000279867
0.000154767
8.37779e-05
4.44089e-05
2.30603e-05
1.17347e-05
5.85395e-06
2.86381e-06
1.37437e-06
6.47252e-07
2.99218e-07
1.35826e-07
6.05598e-08
2.65291e-08
1.14213e-08
4.83377e-09
2.01161e-09
8.23383e-10
3.31564e-10
1.31385e-10
5.1243e-11
1.96759e-11
7.43947e-12
2.77043e-12
1.01635e-12
3.67376e-13
1.3087e-13
4.5953e-14
1.59078e-14
5.43007e-15
1.82801e-15
6.07018e-16
1.98859e-16
6.42811e-17
2.0506e-17
6.4566e-18
2.00687e-18
6.15867e-19
1.86626e-19
5.58511e-20
1.65092e-20
4.82073e-21
1.39074e-21
3.96443e-22
1.11679e-22
3.10934e-23
8.55678e-24
2.33096e-24
5.90658e-25
5.90658e-25
-0.00912621
0.00912621
0.036407
0.0636559
0.0894265
0.11321
0.134805
0.154272
0.171814
0.187685
0.202126
0.215353
0.227543
0.238836
0.249333
0.259091
0.268123
0.276396
0.283837
0.290334
0.295751
0.299934
0.302718
0.303926
0.303361
0.300793
0.295958
0.28857
0.278359
0.265134
0.248851
0.229687
0.208066
0.184657
0.160313
0.135978
0.112576
0.0909066
0.0715669
0.0549133
0.0410626
0.0299247
0.0212562
0.0147201
0.00994086
0.0065489
0.00421018
0.00264233
0.00161956
0.000969866
0.000567681
0.000324903
0.000181901
9.966e-05
5.34542e-05
2.80792e-05
1.44508e-05
7.28887e-06
3.6045e-06
1.74822e-06
8.31871e-07
3.8848e-07
1.78102e-07
8.01845e-08
3.54618e-08
1.54101e-08
6.58176e-09
2.7637e-09
1.1412e-09
4.63519e-10
1.85231e-10
7.28455e-11
2.81991e-11
1.07475e-11
4.03381e-12
1.49125e-12
5.43125e-13
1.94918e-13
6.89427e-14
2.40377e-14
8.26312e-15
2.80104e-15
9.3647e-16
3.08845e-16
1.00492e-16
3.22651e-17
1.02239e-17
3.19776e-18
9.87384e-19
3.01023e-19
9.06246e-20
2.69455e-20
7.91368e-21
2.29604e-21
6.58178e-22
1.86434e-22
5.21891e-23
1.44396e-23
3.94905e-24
1.06908e-24
2.69376e-25
2.69376e-25
-0.000467024
0.000467024
0.00465756
0.0115186
0.0207356
0.0317579
0.0439669
0.0568514
0.0700487
0.0833182
0.0965043
0.109505
0.12225
0.134677
0.146723
0.158303
0.169313
0.179617
0.189055
0.197449
0.204612
0.210353
0.214484
0.216821
0.217178
0.215372
0.211234
0.204627
0.195486
0.183862
0.169957
0.154145
0.136956
0.119044
0.101114
0.083849
0.0678381
0.0535221
0.0411674
0.0308658
0.0225582
0.0160724
0.0111658
0.00756549
0.005001
0.00322622
0.00203192
0.00124986
0.000751144
0.000441233
0.000253435
0.000142394
7.82906e-05
4.21397e-05
2.22126e-05
1.14709e-05
5.80544e-06
2.88052e-06
1.40169e-06
6.69151e-07
3.13491e-07
1.44176e-07
6.51114e-08
2.88835e-08
1.2589e-08
5.39269e-09
2.27095e-09
9.40398e-10
3.83025e-10
1.53483e-10
6.05224e-11
2.34906e-11
8.97618e-12
3.37756e-12
1.25176e-12
4.57019e-13
1.64411e-13
5.82898e-14
2.03706e-14
7.01848e-15
2.38445e-15
7.98943e-16
2.64057e-16
8.61007e-17
2.7702e-17
8.7959e-18
2.75664e-18
8.52853e-19
2.60511e-19
7.85774e-20
2.34071e-20
6.8871e-21
2.00179e-21
5.74847e-22
1.63114e-22
4.57389e-23
1.26763e-23
3.47263e-24
9.40424e-25
2.52107e-25
6.29756e-26
6.29756e-26
9.54897e-06
-9.54897e-06
0.000456064
0.00182854
0.00456362
0.00891115
0.0148752
0.0223042
0.0309811
0.0406755
0.0511651
0.0622392
0.0736916
0.0853097
0.0968655
0.108112
0.118784
0.128608
0.137311
0.144639
0.15036
0.154282
0.156256
0.156175
0.153987
0.14969
0.14335
0.135106
0.125182
0.113892
0.101627
0.088838
0.0760004
0.0635728
0.0519571
0.0414652
0.0323003
0.0245522
0.0182084
0.0131745
0.00930034
0.00640659
0.00430726
0.00282701
0.00181188
0.00113433
0.000693914
0.000414929
0.000242605
0.000138752
7.76513e-05
4.25389e-05
2.28195e-05
1.19911e-05
6.17451e-06
3.11658e-06
1.54253e-06
7.48877e-07
3.56735e-07
1.66792e-07
7.65644e-08
3.45169e-08
1.52866e-08
6.65255e-09
2.84562e-09
1.19672e-09
4.94934e-10
2.01347e-10
8.0592e-11
3.1746e-11
1.23093e-11
4.69919e-12
1.76664e-12
6.54189e-13
2.38656e-13
8.5791e-14
3.03945e-14
1.06148e-14
3.65489e-15
1.24096e-15
4.15559e-16
1.3727e-16
4.4736e-17
1.43862e-17
4.56572e-18
1.43025e-18
4.42303e-19
1.35049e-19
4.07187e-20
1.2125e-20
3.56626e-21
1.03621e-21
2.97465e-22
8.43794e-23
2.36538e-23
6.5536e-24
1.79484e-24
4.85944e-25
1.30077e-25
3.44691e-26
8.52738e-27
8.52738e-27
5.82465e-06
-5.82465e-06
4.36977e-05
0.000440578
0.00170024
0.00429832
0.00846276
0.0141992
0.0213857
0.0298372
0.0393335
0.0496273
0.0604416
0.0714665
0.0823623
0.092769
0.102322
0.110674
0.117509
0.122566
0.125647
0.126628
0.125467
0.122207
0.116975
0.109982
0.101514
0.0919219
0.0816007
0.0709646
0.0604182
0.0503272
0.0409933
0.0326365
0.0253877
0.0192913
0.014317
0.0103768
0.00734506
0.00507782
0.00342899
0.00226222
0.0014584
0.000918964
0.000566126
0.000341072
0.000201014
0.000115928
6.54442e-05
3.61751e-05
1.95859e-05
1.03899e-05
5.40198e-06
2.75359e-06
1.37654e-06
6.75073e-07
3.24874e-07
1.53465e-07
7.11799e-08
3.2425e-08
1.45109e-08
6.38145e-09
2.75845e-09
1.17231e-09
4.89954e-10
2.01424e-10
8.14727e-11
3.24306e-11
1.27068e-11
4.90174e-12
1.86203e-12
6.96686e-13
2.56795e-13
9.32649e-14
3.33822e-14
1.17776e-14
4.0966e-15
1.40504e-15
4.75255e-16
1.58566e-16
5.21926e-17
1.69509e-17
5.43284e-18
1.71861e-18
5.36672e-19
1.65456e-19
5.03687e-20
1.51426e-20
4.49637e-21
1.31886e-21
3.82182e-22
1.09428e-22
3.09618e-23
8.65795e-24
2.39302e-24
6.53836e-25
1.76616e-25
4.71717e-26
1.24582e-26
3.25738e-27
7.97994e-28
7.97994e-28
5.82465e-06
-5.82465e-06
4.36977e-05
0.000440578
0.00170024
0.00429832
0.00846276
0.0141992
0.0213857
0.0298372
0.0393335
0.0496273
0.0604416
0.0714665
0.0823623
0.092769
0.102322
0.110674
0.117509
0.122566
0.125647
0.126628
0.125467
0.122207
0.116975
0.109982
0.101514
0.0919219
0.0816007
0.0709646
0.0604182
0.0503272
0.0409933
0.0326365
0.0253877
0.0192913
0.014317
0.0103768
0.00734506
0.00507782
0.00342899
0.00226222
0.0014584
0.000918964
0.000566126
0.000341072
0.000201014
0.000115928
6.54442e-05
3.61751e-05
1.95859e-05
1.03899e-05
5.40198e-06
2.75359e-06
1.37654e-06
6.75073e-07
3.24874e-07
1.53465e-07
7.11799e-08
3.2425e-08
1.45109e-08
6.38145e-09
2.75845e-09
1.17231e-09
4.89954e-10
2.01424e-10
8.14727e-11
3.24306e-11
1.27068e-11
4.90174e-12
1.86203e-12
6.96686e-13
2.56795e-13
9.32649e-14
3.33822e-14
1.17776e-14
4.0966e-15
1.40504e-15
4.75255e-16
1.58566e-16
5.21926e-17
1.69509e-17
5.43284e-18
1.71861e-18
5.36672e-19
1.65456e-19
5.03687e-20
1.51426e-20
4.49637e-21
1.31886e-21
3.82182e-22
1.09428e-22
3.09618e-23
8.65795e-24
2.39302e-24
6.53836e-25
1.76616e-25
4.71717e-26
1.24582e-26
3.25738e-27
7.97994e-28
7.97994e-28
