# vtk DataFile Version 2.0
FlowField
ASCII
DATASET STRUCTURED_GRID
DIMENSIONS 102 1 12 
POINTS 1224 double
0 0 0
0.4 0 0
0.8 0 0
1.2 0 0
1.6 0 0
2 0 0
2.4 0 0
2.8 0 0
3.2 0 0
3.6 0 0
4 0 0
4.4 0 0
4.8 0 0
5.2 0 0
5.6 0 0
6 0 0
6.4 0 0
6.8 0 0
7.2 0 0
7.6 0 0
8 0 0
8.4 0 0
8.8 0 0
9.2 0 0
9.6 0 0
10 0 0
10.4 0 0
10.8 0 0
11.2 0 0
11.6 0 0
12 0 0
12.4 0 0
12.8 0 0
13.2 0 0
13.6 0 0
14 0 0
14.4 0 0
14.8 0 0
15.2 0 0
15.6 0 0
16 0 0
16.4 0 0
16.8 0 0
17.2 0 0
17.6 0 0
18 0 0
18.4 0 0
18.8 0 0
19.2 0 0
19.6 0 0
20 0 0
20.4 0 0
20.8 0 0
21.2 0 0
21.6 0 0
22 0 0
22.4 0 0
22.8 0 0
23.2 0 0
23.6 0 0
24 0 0
24.4 0 0
24.8 0 0
25.2 0 0
25.6 0 0
26 0 0
26.4 0 0
26.8 0 0
27.2 0 0
27.6 0 0
28 0 0
28.4 0 0
28.8 0 0
29.2 0 0
29.6 0 0
30 0 0
30.4 0 0
30.8 0 0
31.2 0 0
31.6 0 0
32 0 0
32.4 0 0
32.8 0 0
33.2 0 0
33.6 0 0
34 0 0
34.4 0 0
34.8 0 0
35.2 0 0
35.6 0 0
36 0 0
36.4 0 0
36.8 0 0
37.2 0 0
37.6 0 0
38 0 0
38.4 0 0
38.8 0 0
39.2 0 0
39.6 0 0
40 0 0
40.4 0 0
0 0.1 0
0.4 0.1 0
0.8 0.1 0
1.2 0.1 0
1.6 0.1 0
2 0.1 0
2.4 0.1 0
2.8 0.1 0
3.2 0.1 0
3.6 0.1 0
4 0.1 0
4.4 0.1 0
4.8 0.1 0
5.2 0.1 0
5.6 0.1 0
6 0.1 0
6.4 0.1 0
6.8 0.1 0
7.2 0.1 0
7.6 0.1 0
8 0.1 0
8.4 0.1 0
8.8 0.1 0
9.2 0.1 0
9.6 0.1 0
10 0.1 0
10.4 0.1 0
10.8 0.1 0
11.2 0.1 0
11.6 0.1 0
12 0.1 0
12.4 0.1 0
12.8 0.1 0
13.2 0.1 0
13.6 0.1 0
14 0.1 0
14.4 0.1 0
14.8 0.1 0
15.2 0.1 0
15.6 0.1 0
16 0.1 0
16.4 0.1 0
16.8 0.1 0
17.2 0.1 0
17.6 0.1 0
18 0.1 0
18.4 0.1 0
18.8 0.1 0
19.2 0.1 0
19.6 0.1 0
20 0.1 0
20.4 0.1 0
20.8 0.1 0
21.2 0.1 0
21.6 0.1 0
22 0.1 0
22.4 0.1 0
22.8 0.1 0
23.2 0.1 0
23.6 0.1 0
24 0.1 0
24.4 0.1 0
24.8 0.1 0
25.2 0.1 0
25.6 0.1 0
26 0.1 0
26.4 0.1 0
26.8 0.1 0
27.2 0.1 0
27.6 0.1 0
28 0.1 0
28.4 0.1 0
28.8 0.1 0
29.2 0.1 0
29.6 0.1 0
30 0.1 0
30.4 0.1 0
30.8 0.1 0
31.2 0.1 0
31.6 0.1 0
32 0.1 0
32.4 0.1 0
32.8 0.1 0
33.2 0.1 0
33.6 0.1 0
34 0.1 0
34.4 0.1 0
34.8 0.1 0
35.2 0.1 0
35.6 0.1 0
36 0.1 0
36.4 0.1 0
36.8 0.1 0
37.2 0.1 0
37.6 0.1 0
38 0.1 0
38.4 0.1 0
38.8 0.1 0
39.2 0.1 0
39.6 0.1 0
40 0.1 0
40.4 0.1 0
0 0.2 0
0.4 0.2 0
0.8 0.2 0
1.2 0.2 0
1.6 0.2 0
2 0.2 0
2.4 0.2 0
2.8 0.2 0
3.2 0.2 0
3.6 0.2 0
4 0.2 0
4.4 0.2 0
4.8 0.2 0
5.2 0.2 0
5.6 0.2 0
6 0.2 0
6.4 0.2 0
6.8 0.2 0
7.2 0.2 0
7.6 0.2 0
8 0.2 0
8.4 0.2 0
8.8 0.2 0
9.2 0.2 0
9.6 0.2 0
10 0.2 0
10.4 0.2 0
10.8 0.2 0
11.2 0.2 0
11.6 0.2 0
12 0.2 0
12.4 0.2 0
12.8 0.2 0
13.2 0.2 0
13.6 0.2 0
14 0.2 0
14.4 0.2 0
14.8 0.2 0
15.2 0.2 0
15.6 0.2 0
16 0.2 0
16.4 0.2 0
16.8 0.2 0
17.2 0.2 0
17.6 0.2 0
18 0.2 0
18.4 0.2 0
18.8 0.2 0
19.2 0.2 0
19.6 0.2 0
20 0.2 0
20.4 0.2 0
20.8 0.2 0
21.2 0.2 0
21.6 0.2 0
22 0.2 0
22.4 0.2 0
22.8 0.2 0
23.2 0.2 0
23.6 0.2 0
24 0.2 0
24.4 0.2 0
24.8 0.2 0
25.2 0.2 0
25.6 0.2 0
26 0.2 0
26.4 0.2 0
26.8 0.2 0
27.2 0.2 0
27.6 0.2 0
28 0.2 0
28.4 0.2 0
28.8 0.2 0
29.2 0.2 0
29.6 0.2 0
30 0.2 0
30.4 0.2 0
30.8 0.2 0
31.2 0.2 0
31.6 0.2 0
32 0.2 0
32.4 0.2 0
32.8 0.2 0
33.2 0.2 0
33.6 0.2 0
34 0.2 0
34.4 0.2 0
34.8 0.2 0
35.2 0.2 0
35.6 0.2 0
36 0.2 0
36.4 0.2 0
36.8 0.2 0
37.2 0.2 0
37.6 0.2 0
38 0.2 0
38.4 0.2 0
38.8 0.2 0
39.2 0.2 0
39.6 0.2 0
40 0.2 0
40.4 0.2 0
0 0.3 0
0.4 0.3 0
0.8 0.3 0
1.2 0.3 0
1.6 0.3 0
2 0.3 0
2.4 0.3 0
2.8 0.3 0
3.2 0.3 0
3.6 0.3 0
4 0.3 0
4.4 0.3 0
4.8 0.3 0
5.2 0.3 0
5.6 0.3 0
6 0.3 0
6.4 0.3 0
6.8 0.3 0
7.2 0.3 0
7.6 0.3 0
8 0.3 0
8.4 0.3 0
8.8 0.3 0
9.2 0.3 0
9.6 0.3 0
10 0.3 0
10.4 0.3 0
10.8 0.3 0
11.2 0.3 0
11.6 0.3 0
12 0.3 0
12.4 0.3 0
12.8 0.3 0
13.2 0.3 0
13.6 0.3 0
14 0.3 0
14.4 0.3 0
14.8 0.3 0
15.2 0.3 0
15.6 0.3 0
16 0.3 0
16.4 0.3 0
16.8 0.3 0
17.2 0.3 0
17.6 0.3 0
18 0.3 0
18.4 0.3 0
18.8 0.3 0
19.2 0.3 0
19.6 0.3 0
20 0.3 0
20.4 0.3 0
20.8 0.3 0
21.2 0.3 0
21.6 0.3 0
22 0.3 0
22.4 0.3 0
22.8 0.3 0
23.2 0.3 0
23.6 0.3 0
24 0.3 0
24.4 0.3 0
24.8 0.3 0
25.2 0.3 0
25.6 0.3 0
26 0.3 0
26.4 0.3 0
26.8 0.3 0
27.2 0.3 0
27.6 0.3 0
28 0.3 0
28.4 0.3 0
28.8 0.3 0
29.2 0.3 0
29.6 0.3 0
30 0.3 0
30.4 0.3 0
30.8 0.3 0
31.2 0.3 0
31.6 0.3 0
32 0.3 0
32.4 0.3 0
32.8 0.3 0
33.2 0.3 0
33.6 0.3 0
34 0.3 0
34.4 0.3 0
34.8 0.3 0
35.2 0.3 0
35.6 0.3 0
36 0.3 0
36.4 0.3 0
36.8 0.3 0
37.2 0.3 0
37.6 0.3 0
38 0.3 0
38.4 0.3 0
38.8 0.3 0
39.2 0.3 0
39.6 0.3 0
40 0.3 0
40.4 0.3 0
0 0.4 0
0.4 0.4 0
0.8 0.4 0
1.2 0.4 0
1.6 0.4 0
2 0.4 0
2.4 0.4 0
2.8 0.4 0
3.2 0.4 0
3.6 0.4 0
4 0.4 0
4.4 0.4 0
4.8 0.4 0
5.2 0.4 0
5.6 0.4 0
6 0.4 0
6.4 0.4 0
6.8 0.4 0
7.2 0.4 0
7.6 0.4 0
8 0.4 0
8.4 0.4 0
8.8 0.4 0
9.2 0.4 0
9.6 0.4 0
10 0.4 0
10.4 0.4 0
10.8 0.4 0
11.2 0.4 0
11.6 0.4 0
12 0.4 0
12.4 0.4 0
12.8 0.4 0
13.2 0.4 0
13.6 0.4 0
14 0.4 0
14.4 0.4 0
14.8 0.4 0
15.2 0.4 0
15.6 0.4 0
16 0.4 0
16.4 0.4 0
16.8 0.4 0
17.2 0.4 0
17.6 0.4 0
18 0.4 0
18.4 0.4 0
18.8 0.4 0
19.2 0.4 0
19.6 0.4 0
20 0.4 0
20.4 0.4 0
20.8 0.4 0
21.2 0.4 0
21.6 0.4 0
22 0.4 0
22.4 0.4 0
22.8 0.4 0
23.2 0.4 0
23.6 0.4 0
24 0.4 0
24.4 0.4 0
24.8 0.4 0
25.2 0.4 0
25.6 0.4 0
26 0.4 0
26.4 0.4 0
26.8 0.4 0
27.2 0.4 0
27.6 0.4 0
28 0.4 0
28.4 0.4 0
28.8 0.4 0
29.2 0.4 0
29.6 0.4 0
30 0.4 0
30.4 0.4 0
30.8 0.4 0
31.2 0.4 0
31.6 0.4 0
32 0.4 0
32.4 0.4 0
32.8 0.4 0
33.2 0.4 0
33.6 0.4 0
34 0.4 0
34.4 0.4 0
34.8 0.4 0
35.2 0.4 0
35.6 0.4 0
36 0.4 0
36.4 0.4 0
36.8 0.4 0
37.2 0.4 0
37.6 0.4 0
38 0.4 0
38.4 0.4 0
38.8 0.4 0
39.2 0.4 0
39.6 0.4 0
40 0.4 0
40.4 0.4 0
0 0.5 0
0.4 0.5 0
0.8 0.5 0
1.2 0.5 0
1.6 0.5 0
2 0.5 0
2.4 0.5 0
2.8 0.5 0
3.2 0.5 0
3.6 0.5 0
4 0.5 0
4.4 0.5 0
4.8 0.5 0
5.2 0.5 0
5.6 0.5 0
6 0.5 0
6.4 0.5 0
6.8 0.5 0
7.2 0.5 0
7.6 0.5 0
8 0.5 0
8.4 0.5 0
8.8 0.5 0
9.2 0.5 0
9.6 0.5 0
10 0.5 0
10.4 0.5 0
10.8 0.5 0
11.2 0.5 0
11.6 0.5 0
12 0.5 0
12.4 0.5 0
12.8 0.5 0
13.2 0.5 0
13.6 0.5 0
14 0.5 0
14.4 0.5 0
14.8 0.5 0
15.2 0.5 0
15.6 0.5 0
16 0.5 0
16.4 0.5 0
16.8 0.5 0
17.2 0.5 0
17.6 0.5 0
18 0.5 0
18.4 0.5 0
18.8 0.5 0
19.2 0.5 0
19.6 0.5 0
20 0.5 0
20.4 0.5 0
20.8 0.5 0
21.2 0.5 0
21.6 0.5 0
22 0.5 0
22.4 0.5 0
22.8 0.5 0
23.2 0.5 0
23.6 0.5 0
24 0.5 0
24.4 0.5 0
24.8 0.5 0
25.2 0.5 0
25.6 0.5 0
26 0.5 0
26.4 0.5 0
26.8 0.5 0
27.2 0.5 0
27.6 0.5 0
28 0.5 0
28.4 0.5 0
28.8 0.5 0
29.2 0.5 0
29.6 0.5 0
30 0.5 0
30.4 0.5 0
30.8 0.5 0
31.2 0.5 0
31.6 0.5 0
32 0.5 0
32.4 0.5 0
32.8 0.5 0
33.2 0.5 0
33.6 0.5 0
34 0.5 0
34.4 0.5 0
34.8 0.5 0
35.2 0.5 0
35.6 0.5 0
36 0.5 0
36.4 0.5 0
36.8 0.5 0
37.2 0.5 0
37.6 0.5 0
38 0.5 0
38.4 0.5 0
38.8 0.5 0
39.2 0.5 0
39.6 0.5 0
40 0.5 0
40.4 0.5 0
0 0.6 0
0.4 0.6 0
0.8 0.6 0
1.2 0.6 0
1.6 0.6 0
2 0.6 0
2.4 0.6 0
2.8 0.6 0
3.2 0.6 0
3.6 0.6 0
4 0.6 0
4.4 0.6 0
4.8 0.6 0
5.2 0.6 0
5.6 0.6 0
6 0.6 0
6.4 0.6 0
6.8 0.6 0
7.2 0.6 0
7.6 0.6 0
8 0.6 0
8.4 0.6 0
8.8 0.6 0
9.2 0.6 0
9.6 0.6 0
10 0.6 0
10.4 0.6 0
10.8 0.6 0
11.2 0.6 0
11.6 0.6 0
12 0.6 0
12.4 0.6 0
12.8 0.6 0
13.2 0.6 0
13.6 0.6 0
14 0.6 0
14.4 0.6 0
14.8 0.6 0
15.2 0.6 0
15.6 0.6 0
16 0.6 0
16.4 0.6 0
16.8 0.6 0
17.2 0.6 0
17.6 0.6 0
18 0.6 0
18.4 0.6 0
18.8 0.6 0
19.2 0.6 0
19.6 0.6 0
20 0.6 0
20.4 0.6 0
20.8 0.6 0
21.2 0.6 0
21.6 0.6 0
22 0.6 0
22.4 0.6 0
22.8 0.6 0
23.2 0.6 0
23.6 0.6 0
24 0.6 0
24.4 0.6 0
24.8 0.6 0
25.2 0.6 0
25.6 0.6 0
26 0.6 0
26.4 0.6 0
26.8 0.6 0
27.2 0.6 0
27.6 0.6 0
28 0.6 0
28.4 0.6 0
28.8 0.6 0
29.2 0.6 0
29.6 0.6 0
30 0.6 0
30.4 0.6 0
30.8 0.6 0
31.2 0.6 0
31.6 0.6 0
32 0.6 0
32.4 0.6 0
32.8 0.6 0
33.2 0.6 0
33.6 0.6 0
34 0.6 0
34.4 0.6 0
34.8 0.6 0
35.2 0.6 0
35.6 0.6 0
36 0.6 0
36.4 0.6 0
36.8 0.6 0
37.2 0.6 0
37.6 0.6 0
38 0.6 0
38.4 0.6 0
38.8 0.6 0
39.2 0.6 0
39.6 0.6 0
40 0.6 0
40.4 0.6 0
0 0.7 0
0.4 0.7 0
0.8 0.7 0
1.2 0.7 0
1.6 0.7 0
2 0.7 0
2.4 0.7 0
2.8 0.7 0
3.2 0.7 0
3.6 0.7 0
4 0.7 0
4.4 0.7 0
4.8 0.7 0
5.2 0.7 0
5.6 0.7 0
6 0.7 0
6.4 0.7 0
6.8 0.7 0
7.2 0.7 0
7.6 0.7 0
8 0.7 0
8.4 0.7 0
8.8 0.7 0
9.2 0.7 0
9.6 0.7 0
10 0.7 0
10.4 0.7 0
10.8 0.7 0
11.2 0.7 0
11.6 0.7 0
12 0.7 0
12.4 0.7 0
12.8 0.7 0
13.2 0.7 0
13.6 0.7 0
14 0.7 0
14.4 0.7 0
14.8 0.7 0
15.2 0.7 0
15.6 0.7 0
16 0.7 0
16.4 0.7 0
16.8 0.7 0
17.2 0.7 0
17.6 0.7 0
18 0.7 0
18.4 0.7 0
18.8 0.7 0
19.2 0.7 0
19.6 0.7 0
20 0.7 0
20.4 0.7 0
20.8 0.7 0
21.2 0.7 0
21.6 0.7 0
22 0.7 0
22.4 0.7 0
22.8 0.7 0
23.2 0.7 0
23.6 0.7 0
24 0.7 0
24.4 0.7 0
24.8 0.7 0
25.2 0.7 0
25.6 0.7 0
26 0.7 0
26.4 0.7 0
26.8 0.7 0
27.2 0.7 0
27.6 0.7 0
28 0.7 0
28.4 0.7 0
28.8 0.7 0
29.2 0.7 0
29.6 0.7 0
30 0.7 0
30.4 0.7 0
30.8 0.7 0
31.2 0.7 0
31.6 0.7 0
32 0.7 0
32.4 0.7 0
32.8 0.7 0
33.2 0.7 0
33.6 0.7 0
34 0.7 0
34.4 0.7 0
34.8 0.7 0
35.2 0.7 0
35.6 0.7 0
36 0.7 0
36.4 0.7 0
36.8 0.7 0
37.2 0.7 0
37.6 0.7 0
38 0.7 0
38.4 0.7 0
38.8 0.7 0
39.2 0.7 0
39.6 0.7 0
40 0.7 0
40.4 0.7 0
0 0.8 0
0.4 0.8 0
0.8 0.8 0
1.2 0.8 0
1.6 0.8 0
2 0.8 0
2.4 0.8 0
2.8 0.8 0
3.2 0.8 0
3.6 0.8 0
4 0.8 0
4.4 0.8 0
4.8 0.8 0
5.2 0.8 0
5.6 0.8 0
6 0.8 0
6.4 0.8 0
6.8 0.8 0
7.2 0.8 0
7.6 0.8 0
8 0.8 0
8.4 0.8 0
8.8 0.8 0
9.2 0.8 0
9.6 0.8 0
10 0.8 0
10.4 0.8 0
10.8 0.8 0
11.2 0.8 0
11.6 0.8 0
12 0.8 0
12.4 0.8 0
12.8 0.8 0
13.2 0.8 0
13.6 0.8 0
14 0.8 0
14.4 0.8 0
14.8 0.8 0
15.2 0.8 0
15.6 0.8 0
16 0.8 0
16.4 0.8 0
16.8 0.8 0
17.2 0.8 0
17.6 0.8 0
18 0.8 0
18.4 0.8 0
18.8 0.8 0
19.2 0.8 0
19.6 0.8 0
20 0.8 0
20.4 0.8 0
20.8 0.8 0
21.2 0.8 0
21.6 0.8 0
22 0.8 0
22.4 0.8 0
22.8 0.8 0
23.2 0.8 0
23.6 0.8 0
24 0.8 0
24.4 0.8 0
24.8 0.8 0
25.2 0.8 0
25.6 0.8 0
26 0.8 0
26.4 0.8 0
26.8 0.8 0
27.2 0.8 0
27.6 0.8 0
28 0.8 0
28.4 0.8 0
28.8 0.8 0
29.2 0.8 0
29.6 0.8 0
30 0.8 0
30.4 0.8 0
30.8 0.8 0
31.2 0.8 0
31.6 0.8 0
32 0.8 0
32.4 0.8 0
32.8 0.8 0
33.2 0.8 0
33.6 0.8 0
34 0.8 0
34.4 0.8 0
34.8 0.8 0
35.2 0.8 0
35.6 0.8 0
36 0.8 0
36.4 0.8 0
36.8 0.8 0
37.2 0.8 0
37.6 0.8 0
38 0.8 0
38.4 0.8 0
38.8 0.8 0
39.2 0.8 0
39.6 0.8 0
40 0.8 0
40.4 0.8 0
0 0.9 0
0.4 0.9 0
0.8 0.9 0
1.2 0.9 0
1.6 0.9 0
2 0.9 0
2.4 0.9 0
2.8 0.9 0
3.2 0.9 0
3.6 0.9 0
4 0.9 0
4.4 0.9 0
4.8 0.9 0
5.2 0.9 0
5.6 0.9 0
6 0.9 0
6.4 0.9 0
6.8 0.9 0
7.2 0.9 0
7.6 0.9 0
8 0.9 0
8.4 0.9 0
8.8 0.9 0
9.2 0.9 0
9.6 0.9 0
10 0.9 0
10.4 0.9 0
10.8 0.9 0
11.2 0.9 0
11.6 0.9 0
12 0.9 0
12.4 0.9 0
12.8 0.9 0
13.2 0.9 0
13.6 0.9 0
14 0.9 0
14.4 0.9 0
14.8 0.9 0
15.2 0.9 0
15.6 0.9 0
16 0.9 0
16.4 0.9 0
16.8 0.9 0
17.2 0.9 0
17.6 0.9 0
18 0.9 0
18.4 0.9 0
18.8 0.9 0
19.2 0.9 0
19.6 0.9 0
20 0.9 0
20.4 0.9 0
20.8 0.9 0
21.2 0.9 0
21.6 0.9 0
22 0.9 0
22.4 0.9 0
22.8 0.9 0
23.2 0.9 0
23.6 0.9 0
24 0.9 0
24.4 0.9 0
24.8 0.9 0
25.2 0.9 0
25.6 0.9 0
26 0.9 0
26.4 0.9 0
26.8 0.9 0
27.2 0.9 0
27.6 0.9 0
28 0.9 0
28.4 0.9 0
28.8 0.9 0
29.2 0.9 0
29.6 0.9 0
30 0.9 0
30.4 0.9 0
30.8 0.9 0
31.2 0.9 0
31.6 0.9 0
32 0.9 0
32.4 0.9 0
32.8 0.9 0
33.2 0.9 0
33.6 0.9 0
34 0.9 0
34.4 0.9 0
34.8 0.9 0
35.2 0.9 0
35.6 0.9 0
36 0.9 0
36.4 0.9 0
36.8 0.9 0
37.2 0.9 0
37.6 0.9 0
38 0.9 0
38.4 0.9 0
38.8 0.9 0
39.2 0.9 0
39.6 0.9 0
40 0.9 0
40.4 0.9 0
0 1 0
0.4 1 0
0.8 1 0
1.2 1 0
1.6 1 0
2 1 0
2.4 1 0
2.8 1 0
3.2 1 0
3.6 1 0
4 1 0
4.4 1 0
4.8 1 0
5.2 1 0
5.6 1 0
6 1 0
6.4 1 0
6.8 1 0
7.2 1 0
7.6 1 0
8 1 0
8.4 1 0
8.8 1 0
9.2 1 0
9.6 1 0
10 1 0
10.4 1 0
10.8 1 0
11.2 1 0
11.6 1 0
12 1 0
12.4 1 0
12.8 1 0
13.2 1 0
13.6 1 0
14 1 0
14.4 1 0
14.8 1 0
15.2 1 0
15.6 1 0
16 1 0
16.4 1 0
16.8 1 0
17.2 1 0
17.6 1 0
18 1 0
18.4 1 0
18.8 1 0
19.2 1 0
19.6 1 0
20 1 0
20.4 1 0
20.8 1 0
21.2 1 0
21.6 1 0
22 1 0
22.4 1 0
22.8 1 0
23.2 1 0
23.6 1 0
24 1 0
24.4 1 0
24.8 1 0
25.2 1 0
25.6 1 0
26 1 0
26.4 1 0
26.8 1 0
27.2 1 0
27.6 1 0
28 1 0
28.4 1 0
28.8 1 0
29.2 1 0
29.6 1 0
30 1 0
30.4 1 0
30.8 1 0
31.2 1 0
31.6 1 0
32 1 0
32.4 1 0
32.8 1 0
33.2 1 0
33.6 1 0
34 1 0
34.4 1 0
34.8 1 0
35.2 1 0
35.6 1 0
36 1 0
36.4 1 0
36.8 1 0
37.2 1 0
37.6 1 0
38 1 0
38.4 1 0
38.8 1 0
39.2 1 0
39.6 1 0
40 1 0
40.4 1 0
0 1.1 0
0.4 1.1 0
0.8 1.1 0
1.2 1.1 0
1.6 1.1 0
2 1.1 0
2.4 1.1 0
2.8 1.1 0
3.2 1.1 0
3.6 1.1 0
4 1.1 0
4.4 1.1 0
4.8 1.1 0
5.2 1.1 0
5.6 1.1 0
6 1.1 0
6.4 1.1 0
6.8 1.1 0
7.2 1.1 0
7.6 1.1 0
8 1.1 0
8.4 1.1 0
8.8 1.1 0
9.2 1.1 0
9.6 1.1 0
10 1.1 0
10.4 1.1 0
10.8 1.1 0
11.2 1.1 0
11.6 1.1 0
12 1.1 0
12.4 1.1 0
12.8 1.1 0
13.2 1.1 0
13.6 1.1 0
14 1.1 0
14.4 1.1 0
14.8 1.1 0
15.2 1.1 0
15.6 1.1 0
16 1.1 0
16.4 1.1 0
16.8 1.1 0
17.2 1.1 0
17.6 1.1 0
18 1.1 0
18.4 1.1 0
18.8 1.1 0
19.2 1.1 0
19.6 1.1 0
20 1.1 0
20.4 1.1 0
20.8 1.1 0
21.2 1.1 0
21.6 1.1 0
22 1.1 0
22.4 1.1 0
22.8 1.1 0
23.2 1.1 0
23.6 1.1 0
24 1.1 0
24.4 1.1 0
24.8 1.1 0
25.2 1.1 0
25.6 1.1 0
26 1.1 0
26.4 1.1 0
26.8 1.1 0
27.2 1.1 0
27.6 1.1 0
28 1.1 0
28.4 1.1 0
28.8 1.1 0
29.2 1.1 0
29.6 1.1 0
30 1.1 0
30.4 1.1 0
30.8 1.1 0
31.2 1.1 0
31.6 1.1 0
32 1.1 0
32.4 1.1 0
32.8 1.1 0
33.2 1.1 0
33.6 1.1 0
34 1.1 0
34.4 1.1 0
34.8 1.1 0
35.2 1.1 0
35.6 1.1 0
36 1.1 0
36.4 1.1 0
36.8 1.1 0
37.2 1.1 0
37.6 1.1 0
38 1.1 0
38.4 1.1 0
38.8 1.1 0
39.2 1.1 0
39.6 1.1 0
40 1.1 0
40.4 1.1 0

POINT_DATA 1224

SCALARS phi double
LOOKUP_TABLE default
0.911619
1.08838
1.18693
1.21817
1.20207
1.16371
1.12152
1.08384
1.05232
1.02601
1.00345
0.983492
0.965361
0.94857
0.93281
0.917864
0.90354
0.889628
0.87587
0.861961
0.847563
0.832337
0.815973
0.798226
0.778928
0.758003
0.735463
0.711397
0.685958
0.659345
0.631785
0.603516
0.574779
0.545802
0.5168
0.487964
0.459463
0.431437
0.404004
0.377262
0.351287
0.326137
0.301858
0.278483
0.256036
0.234533
0.213988
0.19441
0.175807
0.158188
0.14156
0.125933
0.111317
0.0977187
0.0851465
0.0736032
0.0630868
0.0535877
0.0450878
0.0375587
0.0309615
0.025247
0.0203568
0.0162242
0.0127774
0.00994087
0.00763849
0.00579568
0.00434153
0.00321044
0.00234327
0.00168805
0.00120013
0.000842047
0.000583052
0.000398421
0.00026869
0.000178834
0.000117479
7.61734e-05
4.87543e-05
3.08049e-05
1.92159e-05
1.18351e-05
7.19766e-06
4.3228e-06
2.56409e-06
1.50225e-06
8.69427e-07
4.97112e-07
2.80835e-07
1.56772e-07
8.64893e-08
4.71579e-08
2.54214e-08
1.35412e-08
7.15207e-09
3.71374e-09
1.98347e-09
9.88901e-10
5.86313e-10
5.86313e-10
0.911619
1.08838
1.18693
1.21817
1.20207
1.16371
1.12152
1.08384
1.05232
1.02601
1.00345
0.983492
0.965361
0.94857
0.93281
0.917864
0.90354
0.889628
0.87587
0.861961
0.847563
0.832337
0.815973
0.798226
0.778928
0.758003
0.735463
0.711397
0.685958
0.659345
0.631785
0.603516
0.574779
0.545802
0.5168
0.487964
0.459463
0.431437
0.404004
0.377262
0.351287
0.326137
0.301858
0.278483
0.256036
0.234533
0.213988
0.19441
0.175807
0.158188
0.14156
0.125933
0.111317
0.0977187
0.0851465
0.0736032
0.0630868
0.0535877
0.0450878
0.0375587
0.0309615
0.025247
0.0203568
0.0162242
0.0127774
0.00994087
0.00763849
0.00579568
0.00434153
0.00321044
0.00234327
0.00168805
0.00120013
0.000842047
0.000583052
0.000398421
0.00026869
0.000178834
0.000117479
7.61734e-05
4.87543e-05
3.08049e-05
1.92159e-05
1.18351e-05
7.19766e-06
4.3228e-06
2.56409e-06
1.50225e-06
8.69427e-07
4.97112e-07
2.80835e-07
1.56772e-07
8.64893e-08
4.71579e-08
2.54214e-08
1.35412e-08
7.15207e-09
3.71374e-09
1.98347e-09
9.88901e-10
5.86313e-10
5.86313e-10
1.00188
0.998125
1.02685
1.06105
1.08319
1.0888
1.08087
1.06447
1.04395
1.02217
1.00069
0.980209
0.960954
0.942918
0.926003
0.910081
0.895013
0.880645
0.866796
0.853247
0.839745
0.826017
0.811784
0.796784
0.780799
0.76366
0.745266
0.72558
0.704626
0.68248
0.659263
0.635123
0.61023
0.58476
0.558893
0.532802
0.506648
0.480577
0.454719
0.429187
0.404076
0.379467
0.355426
0.332006
0.309249
0.287189
0.265851
0.245255
0.225417
0.206352
0.188071
0.170589
0.15392
0.138082
0.123097
0.108987
0.0957783
0.0834953
0.0721603
0.0617902
0.0523934
0.0439677
0.0364981
0.029956
0.0242991
0.0194727
0.0154116
0.012043
0.00928926
0.00707133
0.00531162
0.00393646
0.00287806
0.00207579
0.00147686
0.0010365
0.000717584
0.000490078
0.000330191
0.000219482
0.000143945
9.31517e-05
5.9487e-05
3.74913e-05
2.33216e-05
1.43204e-05
8.68085e-06
5.19556e-06
3.07053e-06
1.79207e-06
1.03302e-06
5.88198e-07
3.3087e-07
1.83883e-07
1.00998e-07
5.48001e-08
2.94494e-08
1.55718e-08
8.35901e-09
4.22695e-09
2.57925e-09
2.57925e-09
1.01572
0.984281
0.963649
0.958795
0.96217
0.966524
0.967709
0.964361
0.956778
0.945954
0.932986
0.918808
0.904113
0.889375
0.874888
0.860827
0.847276
0.834259
0.82175
0.809679
0.797939
0.786386
0.774853
0.763157
0.751111
0.738543
0.725301
0.711264
0.696349
0.68051
0.663738
0.646058
0.627523
0.60821
0.588209
0.567624
0.546563
0.525136
0.503449
0.481603
0.459689
0.437794
0.415993
0.39435
0.372925
0.351766
0.330914
0.310405
0.290265
0.270521
0.251192
0.232298
0.213862
0.195908
0.178468
0.161584
0.145307
0.129697
0.114823
0.100761
0.0875827
0.0753585
0.0641459
0.0539865
0.0449014
0.036889
0.0299244
0.0239605
0.0189316
0.014757
0.0113461
0.0086034
0.00643318
0.00474333
0.00344848
0.00247202
0.00174729
0.00121782
0.000836998
0.00056731
0.000379233
0.000250045
0.000162631
0.000104353
6.60647e-05
4.12716e-05
2.54449e-05
1.54836e-05
9.30075e-06
5.51562e-06
3.22965e-06
1.86748e-06
1.06649e-06
6.01585e-07
3.3526e-07
1.8456e-07
1.00505e-07
5.39541e-08
2.90359e-08
1.50011e-08
8.6675e-09
8.6675e-09
1.02404
0.975965
0.919364
0.876597
0.848753
0.831753
0.821182
0.813715
0.807274
0.800757
0.793701
0.786012
0.777776
0.769148
0.760296
0.751369
0.742487
0.733739
0.725182
0.716843
0.708721
0.700786
0.692983
0.685235
0.677444
0.669506
0.661309
0.652742
0.643706
0.634113
0.623891
0.61299
0.601376
0.589036
0.575975
0.562212
0.547777
0.532712
0.517065
0.50089
0.484241
0.467175
0.449746
0.432008
0.414011
0.395803
0.377429
0.358929
0.340339
0.321691
0.303014
0.284338
0.265688
0.247098
0.228608
0.210268
0.192146
0.174327
0.156912
0.140021
0.123783
0.108333
0.0937998
0.0803012
0.0679328
0.0567623
0.0468246
0.0381208
0.0306188
0.0242573
0.0189511
0.0145982
0.0110863
0.00829979
0.0061252
0.00445598
0.00319552
0.00225908
0.00157449
0.00108191
0.000733045
0.000489772
0.000322722
0.000209741
0.000134465
8.50469e-05
5.30748e-05
3.26853e-05
1.9866e-05
1.19184e-05
7.05882e-06
4.12773e-06
2.3835e-06
1.35924e-06
7.65648e-07
4.26006e-07
2.34311e-07
1.27155e-07
6.87836e-08
3.5942e-08
2.03847e-08
2.03847e-08
1.11553
0.884471
0.754942
0.682423
0.641439
0.61841
0.605773
0.599099
0.595721
0.594024
0.593049
0.592248
0.591331
0.590167
0.588716
0.586989
0.585025
0.582869
0.580568
0.578165
0.575691
0.573164
0.570591
0.567962
0.565254
0.562429
0.559439
0.556225
0.552723
0.548866
0.544587
0.539822
0.534511
0.528605
0.522059
0.514838
0.506917
0.498277
0.48891
0.478816
0.468
0.456476
0.44426
0.431377
0.417853
0.403718
0.389007
0.373753
0.357992
0.34176
0.325092
0.308024
0.290593
0.272841
0.254817
0.236586
0.218228
0.199845
0.181563
0.16353
0.14591
0.12888
0.112618
0.0972933
0.0830547
0.0700216
0.0582764
0.0478611
0.0387758
0.0309824
0.0244093
0.0189589
0.0145157
0.0109546
0.00814845
0.00597401
0.00431695
0.00307487
0.00215893
0.00149432
0.00101973
0.000686121
0.000455239
0.000297887
0.000192261
0.000122408
7.68896e-05
4.76562e-05
2.91491e-05
1.75971e-05
1.04865e-05
6.16944e-06
3.58387e-06
2.05591e-06
1.16486e-06
6.5189e-07
3.60566e-07
1.96796e-07
1.06952e-07
5.61529e-08
3.19842e-08
3.19842e-08
-0.101677
0.101677
0.204149
0.258515
0.29004
0.310502
0.325452
0.337536
0.348013
0.357476
0.366192
0.374278
0.381784
0.388735
0.395152
0.401057
0.406477
0.411445
0.415996
0.420164
0.423985
0.42749
0.430705
0.433649
0.436332
0.438758
0.440918
0.442793
0.444356
0.445569
0.44639
0.446768
0.446647
0.445972
0.444685
0.442729
0.440052
0.436604
0.432343
0.427233
0.421245
0.414358
0.406563
0.397857
0.388248
0.377751
0.366391
0.354198
0.34121
0.327467
0.313014
0.2979
0.282176
0.265902
0.249147
0.231994
0.214543
0.196916
0.179258
0.161733
0.144524
0.127822
0.111819
0.0966963
0.0826136
0.0696993
0.0580437
0.0476948
0.0386585
0.0309006
0.024353
0.0189205
0.0144899
0.0109375
0.00813717
0.00596669
0.00431226
0.00307189
0.00215706
0.00149317
0.00101902
0.000685696
0.000454986
0.000297738
0.000192174
0.000122358
7.6861e-05
4.76401e-05
2.91401e-05
1.75922e-05
1.04838e-05
6.16801e-06
3.58311e-06
2.05551e-06
1.16465e-06
6.51782e-07
3.60511e-07
1.96769e-07
1.06938e-07
5.61462e-08
3.19808e-08
3.19808e-08
-0.00930645
0.00930645
0.0399923
0.0692732
0.0943627
0.115578
0.133846
0.150008
0.164679
0.178277
0.191068
0.203216
0.214819
0.225933
0.236591
0.246813
0.25661
0.265995
0.274979
0.283574
0.291791
0.299645
0.307146
0.314304
0.321125
0.327608
0.333747
0.339527
0.344925
0.349909
0.354438
0.358462
0.361926
0.364769
0.366925
0.368328
0.368914
0.368621
0.367394
0.365183
0.361951
0.357669
0.352323
0.345909
0.338436
0.329927
0.320416
0.309945
0.298567
0.286343
0.273337
0.259622
0.245275
0.230382
0.215039
0.199353
0.183446
0.167459
0.151543
0.135866
0.1206
0.10592
0.0919897
0.0789583
0.0669475
0.0560474
0.0463119
0.0377573
0.0303641
0.0240808
0.0188304
0.0145165
0.0110317
0.00826375
0.00610169
0.00444082
0.00318587
0.00225301
0.00157071
0.00107959
0.000731637
0.000488928
0.000322221
0.000209448
0.000134295
8.49498e-05
5.30198e-05
3.26546e-05
1.9849e-05
1.19091e-05
7.0538e-06
4.12505e-06
2.38208e-06
1.3585e-06
7.65264e-07
4.2581e-07
2.34211e-07
1.27106e-07
6.87589e-08
3.593e-08
2.03788e-08
2.03788e-08
-0.000483305
0.000483305
0.0062834
0.014825
0.024693
0.0352056
0.0460684
0.0571535
0.0683964
0.0797547
0.0911921
0.102673
0.114161
0.125618
0.137007
0.14829
0.159435
0.17041
0.181187
0.191742
0.202055
0.212105
0.221876
0.231347
0.240496
0.249298
0.257721
0.265727
0.27327
0.280298
0.28675
0.292561
0.297659
0.301973
0.305429
0.307958
0.309492
0.309976
0.309361
0.307613
0.30471
0.300646
0.29543
0.289086
0.281655
0.273189
0.263755
0.253428
0.242294
0.230445
0.217978
0.204997
0.191608
0.177924
0.164064
0.150151
0.136317
0.122696
0.109424
0.0966385
0.0844678
0.0730294
0.0624228
0.0527256
0.0439889
0.036236
0.0294624
0.0236374
0.0187082
0.0146043
0.011243
0.0085346
0.00638781
0.00471376
0.00342943
0.00245991
0.00173968
0.00121309
0.000834092
0.000565547
0.000378175
0.000249419
0.000162264
0.00010414
6.59432e-05
4.12029e-05
2.54065e-05
1.54624e-05
9.28914e-06
5.50934e-06
3.2263e-06
1.86571e-06
1.06556e-06
6.01106e-07
3.35015e-07
1.84436e-07
1.00442e-07
5.39233e-08
2.90207e-08
1.49938e-08
8.66387e-09
8.66387e-09
4.08322e-05
-4.08322e-05
0.000817245
0.00283838
0.00606915
0.0105077
0.0161103
0.0227913
0.0304364
0.0389186
0.0481101
0.0578891
0.0681419
0.0787647
0.0896628
0.100751
0.111952
0.123199
0.13443
0.145591
0.15663
0.167498
0.178148
0.188529
0.198586
0.20826
0.217486
0.226194
0.234306
0.241741
0.248415
0.254243
0.259141
0.26303
0.265839
0.267508
0.267989
0.267248
0.265268
0.262051
0.257617
0.252001
0.245261
0.237466
0.228703
0.219068
0.20867
0.197625
0.186053
0.174078
0.161828
0.149428
0.137004
0.124678
0.112572
0.100799
0.0894678
0.078679
0.0685207
0.0590674
0.0503774
0.0424907
0.0354274
0.0291882
0.0237546
0.0190908
0.0151468
0.0118614
0.00916612
0.00698881
0.00525696
0.00390067
0.0028549
0.00206097
0.0014675
0.00103065
0.000713969
0.000487872
0.00032886
0.000218688
0.000143477
9.28791e-05
5.93299e-05
3.74018e-05
2.32713e-05
1.42923e-05
8.66542e-06
5.18716e-06
3.066e-06
1.78966e-06
1.03175e-06
5.87537e-07
3.30529e-07
1.83709e-07
1.0091e-07
5.47564e-08
2.94278e-08
1.55612e-08
8.35382e-09
4.22449e-09
2.57797e-09
2.57797e-09
2.2059e-05
-2.2059e-05
0.000114971
0.000803975
0.00239726
0.00512891
0.00909723
0.0142977
0.0206594
0.0280718
0.0364036
0.0455167
0.0552757
0.0655533
0.0762328
0.0872093
0.0983888
0.109688
0.12103
0.132345
0.143566
0.154626
0.165457
0.175985
0.186132
0.195814
0.20494
0.213417
0.221147
0.22803
0.233971
0.238877
0.242666
0.245264
0.246617
0.246684
0.245444
0.242896
0.239059
0.233973
0.227698
0.220313
0.211912
0.202607
0.192517
0.181773
0.170512
0.158875
0.147003
0.135037
0.123113
0.111364
0.0999142
0.0888767
0.0783543
0.0684357
0.0591937
0.050684
0.0429439
0.035992
0.0298287
0.0244366
0.0197832
0.0158227
0.0124994
0.00975049
0.00750958
0.00570937
0.0042844
0.00317305
0.00231908
0.00167258
0.00119034
0.000835931
0.000579272
0.000396112
0.000267295
0.000178001
0.000116987
7.58865e-05
4.85887e-05
3.07104e-05
1.91625e-05
1.18053e-05
7.18124e-06
4.31384e-06
2.55925e-06
1.49966e-06
8.68063e-07
4.96399e-07
2.80467e-07
1.56584e-07
8.63938e-08
4.711e-08
2.53977e-08
1.35296e-08
7.14641e-09
3.71102e-09
1.98213e-09
9.88279e-10
5.86e-10
5.86e-10
2.2059e-05
-2.2059e-05
0.000114971
0.000803975
0.00239726
0.00512891
0.00909723
0.0142977
0.0206594
0.0280718
0.0364036
0.0455167
0.0552757
0.0655533
0.0762328
0.0872093
0.0983888
0.109688
0.12103
0.132345
0.143566
0.154626
0.165457
0.175985
0.186132
0.195814
0.20494
0.213417
0.221147
0.22803
0.233971
0.238877
0.242666
0.245264
0.246617
0.246684
0.245444
0.242896
0.239059
0.233973
0.227698
0.220313
0.211912
0.202607
0.192517
0.181773
0.170512
0.158875
0.147003
0.135037
0.123113
0.111364
0.0999142
0.0888767
0.0783543
0.0684357
0.0591937
0.050684
0.0429439
0.035992
0.0298287
0.0244366
0.0197832
0.0158227
0.0124994
0.00975049
0.00750958
0.00570937
0.0042844
0.00317305
0.00231908
0.00167258
0.00119034
0.000835931
0.000579272
0.000396112
0.000267295
0.000178001
0.000116987
7.58865e-05
4.85887e-05
3.07104e-05
1.91625e-05
1.18053e-05
7.18124e-06
4.31384e-06
2.55925e-06
1.49966e-06
8.68063e-07
4.96399e-07
2.80467e-07
1.56584e-07
8.63938e-08
4.711e-08
2.53977e-08
1.35296e-08
7.14641e-09
3.71102e-09
1.98213e-09
9.88279e-10
5.86e-10
5.86e-10
