# vtk DataFile Version 2.0
FlowField
ASCII
DATASET STRUCTURED_GRID
DIMENSIONS 102 1 12 
POINTS 1224 double
0 0 0
0.4 0 0
0.8 0 0
1.2 0 0
1.6 0 0
2 0 0
2.4 0 0
2.8 0 0
3.2 0 0
3.6 0 0
4 0 0
4.4 0 0
4.8 0 0
5.2 0 0
5.6 0 0
6 0 0
6.4 0 0
6.8 0 0
7.2 0 0
7.6 0 0
8 0 0
8.4 0 0
8.8 0 0
9.2 0 0
9.6 0 0
10 0 0
10.4 0 0
10.8 0 0
11.2 0 0
11.6 0 0
12 0 0
12.4 0 0
12.8 0 0
13.2 0 0
13.6 0 0
14 0 0
14.4 0 0
14.8 0 0
15.2 0 0
15.6 0 0
16 0 0
16.4 0 0
16.8 0 0
17.2 0 0
17.6 0 0
18 0 0
18.4 0 0
18.8 0 0
19.2 0 0
19.6 0 0
20 0 0
20.4 0 0
20.8 0 0
21.2 0 0
21.6 0 0
22 0 0
22.4 0 0
22.8 0 0
23.2 0 0
23.6 0 0
24 0 0
24.4 0 0
24.8 0 0
25.2 0 0
25.6 0 0
26 0 0
26.4 0 0
26.8 0 0
27.2 0 0
27.6 0 0
28 0 0
28.4 0 0
28.8 0 0
29.2 0 0
29.6 0 0
30 0 0
30.4 0 0
30.8 0 0
31.2 0 0
31.6 0 0
32 0 0
32.4 0 0
32.8 0 0
33.2 0 0
33.6 0 0
34 0 0
34.4 0 0
34.8 0 0
35.2 0 0
35.6 0 0
36 0 0
36.4 0 0
36.8 0 0
37.2 0 0
37.6 0 0
38 0 0
38.4 0 0
38.8 0 0
39.2 0 0
39.6 0 0
40 0 0
40.4 0 0
0 0.1 0
0.4 0.1 0
0.8 0.1 0
1.2 0.1 0
1.6 0.1 0
2 0.1 0
2.4 0.1 0
2.8 0.1 0
3.2 0.1 0
3.6 0.1 0
4 0.1 0
4.4 0.1 0
4.8 0.1 0
5.2 0.1 0
5.6 0.1 0
6 0.1 0
6.4 0.1 0
6.8 0.1 0
7.2 0.1 0
7.6 0.1 0
8 0.1 0
8.4 0.1 0
8.8 0.1 0
9.2 0.1 0
9.6 0.1 0
10 0.1 0
10.4 0.1 0
10.8 0.1 0
11.2 0.1 0
11.6 0.1 0
12 0.1 0
12.4 0.1 0
12.8 0.1 0
13.2 0.1 0
13.6 0.1 0
14 0.1 0
14.4 0.1 0
14.8 0.1 0
15.2 0.1 0
15.6 0.1 0
16 0.1 0
16.4 0.1 0
16.8 0.1 0
17.2 0.1 0
17.6 0.1 0
18 0.1 0
18.4 0.1 0
18.8 0.1 0
19.2 0.1 0
19.6 0.1 0
20 0.1 0
20.4 0.1 0
20.8 0.1 0
21.2 0.1 0
21.6 0.1 0
22 0.1 0
22.4 0.1 0
22.8 0.1 0
23.2 0.1 0
23.6 0.1 0
24 0.1 0
24.4 0.1 0
24.8 0.1 0
25.2 0.1 0
25.6 0.1 0
26 0.1 0
26.4 0.1 0
26.8 0.1 0
27.2 0.1 0
27.6 0.1 0
28 0.1 0
28.4 0.1 0
28.8 0.1 0
29.2 0.1 0
29.6 0.1 0
30 0.1 0
30.4 0.1 0
30.8 0.1 0
31.2 0.1 0
31.6 0.1 0
32 0.1 0
32.4 0.1 0
32.8 0.1 0
33.2 0.1 0
33.6 0.1 0
34 0.1 0
34.4 0.1 0
34.8 0.1 0
35.2 0.1 0
35.6 0.1 0
36 0.1 0
36.4 0.1 0
36.8 0.1 0
37.2 0.1 0
37.6 0.1 0
38 0.1 0
38.4 0.1 0
38.8 0.1 0
39.2 0.1 0
39.6 0.1 0
40 0.1 0
40.4 0.1 0
0 0.2 0
0.4 0.2 0
0.8 0.2 0
1.2 0.2 0
1.6 0.2 0
2 0.2 0
2.4 0.2 0
2.8 0.2 0
3.2 0.2 0
3.6 0.2 0
4 0.2 0
4.4 0.2 0
4.8 0.2 0
5.2 0.2 0
5.6 0.2 0
6 0.2 0
6.4 0.2 0
6.8 0.2 0
7.2 0.2 0
7.6 0.2 0
8 0.2 0
8.4 0.2 0
8.8 0.2 0
9.2 0.2 0
9.6 0.2 0
10 0.2 0
10.4 0.2 0
10.8 0.2 0
11.2 0.2 0
11.6 0.2 0
12 0.2 0
12.4 0.2 0
12.8 0.2 0
13.2 0.2 0
13.6 0.2 0
14 0.2 0
14.4 0.2 0
14.8 0.2 0
15.2 0.2 0
15.6 0.2 0
16 0.2 0
16.4 0.2 0
16.8 0.2 0
17.2 0.2 0
17.6 0.2 0
18 0.2 0
18.4 0.2 0
18.8 0.2 0
19.2 0.2 0
19.6 0.2 0
20 0.2 0
20.4 0.2 0
20.8 0.2 0
21.2 0.2 0
21.6 0.2 0
22 0.2 0
22.4 0.2 0
22.8 0.2 0
23.2 0.2 0
23.6 0.2 0
24 0.2 0
24.4 0.2 0
24.8 0.2 0
25.2 0.2 0
25.6 0.2 0
26 0.2 0
26.4 0.2 0
26.8 0.2 0
27.2 0.2 0
27.6 0.2 0
28 0.2 0
28.4 0.2 0
28.8 0.2 0
29.2 0.2 0
29.6 0.2 0
30 0.2 0
30.4 0.2 0
30.8 0.2 0
31.2 0.2 0
31.6 0.2 0
32 0.2 0
32.4 0.2 0
32.8 0.2 0
33.2 0.2 0
33.6 0.2 0
34 0.2 0
34.4 0.2 0
34.8 0.2 0
35.2 0.2 0
35.6 0.2 0
36 0.2 0
36.4 0.2 0
36.8 0.2 0
37.2 0.2 0
37.6 0.2 0
38 0.2 0
38.4 0.2 0
38.8 0.2 0
39.2 0.2 0
39.6 0.2 0
40 0.2 0
40.4 0.2 0
0 0.3 0
0.4 0.3 0
0.8 0.3 0
1.2 0.3 0
1.6 0.3 0
2 0.3 0
2.4 0.3 0
2.8 0.3 0
3.2 0.3 0
3.6 0.3 0
4 0.3 0
4.4 0.3 0
4.8 0.3 0
5.2 0.3 0
5.6 0.3 0
6 0.3 0
6.4 0.3 0
6.8 0.3 0
7.2 0.3 0
7.6 0.3 0
8 0.3 0
8.4 0.3 0
8.8 0.3 0
9.2 0.3 0
9.6 0.3 0
10 0.3 0
10.4 0.3 0
10.8 0.3 0
11.2 0.3 0
11.6 0.3 0
12 0.3 0
12.4 0.3 0
12.8 0.3 0
13.2 0.3 0
13.6 0.3 0
14 0.3 0
14.4 0.3 0
14.8 0.3 0
15.2 0.3 0
15.6 0.3 0
16 0.3 0
16.4 0.3 0
16.8 0.3 0
17.2 0.3 0
17.6 0.3 0
18 0.3 0
18.4 0.3 0
18.8 0.3 0
19.2 0.3 0
19.6 0.3 0
20 0.3 0
20.4 0.3 0
20.8 0.3 0
21.2 0.3 0
21.6 0.3 0
22 0.3 0
22.4 0.3 0
22.8 0.3 0
23.2 0.3 0
23.6 0.3 0
24 0.3 0
24.4 0.3 0
24.8 0.3 0
25.2 0.3 0
25.6 0.3 0
26 0.3 0
26.4 0.3 0
26.8 0.3 0
27.2 0.3 0
27.6 0.3 0
28 0.3 0
28.4 0.3 0
28.8 0.3 0
29.2 0.3 0
29.6 0.3 0
30 0.3 0
30.4 0.3 0
30.8 0.3 0
31.2 0.3 0
31.6 0.3 0
32 0.3 0
32.4 0.3 0
32.8 0.3 0
33.2 0.3 0
33.6 0.3 0
34 0.3 0
34.4 0.3 0
34.8 0.3 0
35.2 0.3 0
35.6 0.3 0
36 0.3 0
36.4 0.3 0
36.8 0.3 0
37.2 0.3 0
37.6 0.3 0
38 0.3 0
38.4 0.3 0
38.8 0.3 0
39.2 0.3 0
39.6 0.3 0
40 0.3 0
40.4 0.3 0
0 0.4 0
0.4 0.4 0
0.8 0.4 0
1.2 0.4 0
1.6 0.4 0
2 0.4 0
2.4 0.4 0
2.8 0.4 0
3.2 0.4 0
3.6 0.4 0
4 0.4 0
4.4 0.4 0
4.8 0.4 0
5.2 0.4 0
5.6 0.4 0
6 0.4 0
6.4 0.4 0
6.8 0.4 0
7.2 0.4 0
7.6 0.4 0
8 0.4 0
8.4 0.4 0
8.8 0.4 0
9.2 0.4 0
9.6 0.4 0
10 0.4 0
10.4 0.4 0
10.8 0.4 0
11.2 0.4 0
11.6 0.4 0
12 0.4 0
12.4 0.4 0
12.8 0.4 0
13.2 0.4 0
13.6 0.4 0
14 0.4 0
14.4 0.4 0
14.8 0.4 0
15.2 0.4 0
15.6 0.4 0
16 0.4 0
16.4 0.4 0
16.8 0.4 0
17.2 0.4 0
17.6 0.4 0
18 0.4 0
18.4 0.4 0
18.8 0.4 0
19.2 0.4 0
19.6 0.4 0
20 0.4 0
20.4 0.4 0
20.8 0.4 0
21.2 0.4 0
21.6 0.4 0
22 0.4 0
22.4 0.4 0
22.8 0.4 0
23.2 0.4 0
23.6 0.4 0
24 0.4 0
24.4 0.4 0
24.8 0.4 0
25.2 0.4 0
25.6 0.4 0
26 0.4 0
26.4 0.4 0
26.8 0.4 0
27.2 0.4 0
27.6 0.4 0
28 0.4 0
28.4 0.4 0
28.8 0.4 0
29.2 0.4 0
29.6 0.4 0
30 0.4 0
30.4 0.4 0
30.8 0.4 0
31.2 0.4 0
31.6 0.4 0
32 0.4 0
32.4 0.4 0
32.8 0.4 0
33.2 0.4 0
33.6 0.4 0
34 0.4 0
34.4 0.4 0
34.8 0.4 0
35.2 0.4 0
35.6 0.4 0
36 0.4 0
36.4 0.4 0
36.8 0.4 0
37.2 0.4 0
37.6 0.4 0
38 0.4 0
38.4 0.4 0
38.8 0.4 0
39.2 0.4 0
39.6 0.4 0
40 0.4 0
40.4 0.4 0
0 0.5 0
0.4 0.5 0
0.8 0.5 0
1.2 0.5 0
1.6 0.5 0
2 0.5 0
2.4 0.5 0
2.8 0.5 0
3.2 0.5 0
3.6 0.5 0
4 0.5 0
4.4 0.5 0
4.8 0.5 0
5.2 0.5 0
5.6 0.5 0
6 0.5 0
6.4 0.5 0
6.8 0.5 0
7.2 0.5 0
7.6 0.5 0
8 0.5 0
8.4 0.5 0
8.8 0.5 0
9.2 0.5 0
9.6 0.5 0
10 0.5 0
10.4 0.5 0
10.8 0.5 0
11.2 0.5 0
11.6 0.5 0
12 0.5 0
12.4 0.5 0
12.8 0.5 0
13.2 0.5 0
13.6 0.5 0
14 0.5 0
14.4 0.5 0
14.8 0.5 0
15.2 0.5 0
15.6 0.5 0
16 0.5 0
16.4 0.5 0
16.8 0.5 0
17.2 0.5 0
17.6 0.5 0
18 0.5 0
18.4 0.5 0
18.8 0.5 0
19.2 0.5 0
19.6 0.5 0
20 0.5 0
20.4 0.5 0
20.8 0.5 0
21.2 0.5 0
21.6 0.5 0
22 0.5 0
22.4 0.5 0
22.8 0.5 0
23.2 0.5 0
23.6 0.5 0
24 0.5 0
24.4 0.5 0
24.8 0.5 0
25.2 0.5 0
25.6 0.5 0
26 0.5 0
26.4 0.5 0
26.8 0.5 0
27.2 0.5 0
27.6 0.5 0
28 0.5 0
28.4 0.5 0
28.8 0.5 0
29.2 0.5 0
29.6 0.5 0
30 0.5 0
30.4 0.5 0
30.8 0.5 0
31.2 0.5 0
31.6 0.5 0
32 0.5 0
32.4 0.5 0
32.8 0.5 0
33.2 0.5 0
33.6 0.5 0
34 0.5 0
34.4 0.5 0
34.8 0.5 0
35.2 0.5 0
35.6 0.5 0
36 0.5 0
36.4 0.5 0
36.8 0.5 0
37.2 0.5 0
37.6 0.5 0
38 0.5 0
38.4 0.5 0
38.8 0.5 0
39.2 0.5 0
39.6 0.5 0
40 0.5 0
40.4 0.5 0
0 0.6 0
0.4 0.6 0
0.8 0.6 0
1.2 0.6 0
1.6 0.6 0
2 0.6 0
2.4 0.6 0
2.8 0.6 0
3.2 0.6 0
3.6 0.6 0
4 0.6 0
4.4 0.6 0
4.8 0.6 0
5.2 0.6 0
5.6 0.6 0
6 0.6 0
6.4 0.6 0
6.8 0.6 0
7.2 0.6 0
7.6 0.6 0
8 0.6 0
8.4 0.6 0
8.8 0.6 0
9.2 0.6 0
9.6 0.6 0
10 0.6 0
10.4 0.6 0
10.8 0.6 0
11.2 0.6 0
11.6 0.6 0
12 0.6 0
12.4 0.6 0
12.8 0.6 0
13.2 0.6 0
13.6 0.6 0
14 0.6 0
14.4 0.6 0
14.8 0.6 0
15.2 0.6 0
15.6 0.6 0
16 0.6 0
16.4 0.6 0
16.8 0.6 0
17.2 0.6 0
17.6 0.6 0
18 0.6 0
18.4 0.6 0
18.8 0.6 0
19.2 0.6 0
19.6 0.6 0
20 0.6 0
20.4 0.6 0
20.8 0.6 0
21.2 0.6 0
21.6 0.6 0
22 0.6 0
22.4 0.6 0
22.8 0.6 0
23.2 0.6 0
23.6 0.6 0
24 0.6 0
24.4 0.6 0
24.8 0.6 0
25.2 0.6 0
25.6 0.6 0
26 0.6 0
26.4 0.6 0
26.8 0.6 0
27.2 0.6 0
27.6 0.6 0
28 0.6 0
28.4 0.6 0
28.8 0.6 0
29.2 0.6 0
29.6 0.6 0
30 0.6 0
30.4 0.6 0
30.8 0.6 0
31.2 0.6 0
31.6 0.6 0
32 0.6 0
32.4 0.6 0
32.8 0.6 0
33.2 0.6 0
33.6 0.6 0
34 0.6 0
34.4 0.6 0
34.8 0.6 0
35.2 0.6 0
35.6 0.6 0
36 0.6 0
36.4 0.6 0
36.8 0.6 0
37.2 0.6 0
37.6 0.6 0
38 0.6 0
38.4 0.6 0
38.8 0.6 0
39.2 0.6 0
39.6 0.6 0
40 0.6 0
40.4 0.6 0
0 0.7 0
0.4 0.7 0
0.8 0.7 0
1.2 0.7 0
1.6 0.7 0
2 0.7 0
2.4 0.7 0
2.8 0.7 0
3.2 0.7 0
3.6 0.7 0
4 0.7 0
4.4 0.7 0
4.8 0.7 0
5.2 0.7 0
5.6 0.7 0
6 0.7 0
6.4 0.7 0
6.8 0.7 0
7.2 0.7 0
7.6 0.7 0
8 0.7 0
8.4 0.7 0
8.8 0.7 0
9.2 0.7 0
9.6 0.7 0
10 0.7 0
10.4 0.7 0
10.8 0.7 0
11.2 0.7 0
11.6 0.7 0
12 0.7 0
12.4 0.7 0
12.8 0.7 0
13.2 0.7 0
13.6 0.7 0
14 0.7 0
14.4 0.7 0
14.8 0.7 0
15.2 0.7 0
15.6 0.7 0
16 0.7 0
16.4 0.7 0
16.8 0.7 0
17.2 0.7 0
17.6 0.7 0
18 0.7 0
18.4 0.7 0
18.8 0.7 0
19.2 0.7 0
19.6 0.7 0
20 0.7 0
20.4 0.7 0
20.8 0.7 0
21.2 0.7 0
21.6 0.7 0
22 0.7 0
22.4 0.7 0
22.8 0.7 0
23.2 0.7 0
23.6 0.7 0
24 0.7 0
24.4 0.7 0
24.8 0.7 0
25.2 0.7 0
25.6 0.7 0
26 0.7 0
26.4 0.7 0
26.8 0.7 0
27.2 0.7 0
27.6 0.7 0
28 0.7 0
28.4 0.7 0
28.8 0.7 0
29.2 0.7 0
29.6 0.7 0
30 0.7 0
30.4 0.7 0
30.8 0.7 0
31.2 0.7 0
31.6 0.7 0
32 0.7 0
32.4 0.7 0
32.8 0.7 0
33.2 0.7 0
33.6 0.7 0
34 0.7 0
34.4 0.7 0
34.8 0.7 0
35.2 0.7 0
35.6 0.7 0
36 0.7 0
36.4 0.7 0
36.8 0.7 0
37.2 0.7 0
37.6 0.7 0
38 0.7 0
38.4 0.7 0
38.8 0.7 0
39.2 0.7 0
39.6 0.7 0
40 0.7 0
40.4 0.7 0
0 0.8 0
0.4 0.8 0
0.8 0.8 0
1.2 0.8 0
1.6 0.8 0
2 0.8 0
2.4 0.8 0
2.8 0.8 0
3.2 0.8 0
3.6 0.8 0
4 0.8 0
4.4 0.8 0
4.8 0.8 0
5.2 0.8 0
5.6 0.8 0
6 0.8 0
6.4 0.8 0
6.8 0.8 0
7.2 0.8 0
7.6 0.8 0
8 0.8 0
8.4 0.8 0
8.8 0.8 0
9.2 0.8 0
9.6 0.8 0
10 0.8 0
10.4 0.8 0
10.8 0.8 0
11.2 0.8 0
11.6 0.8 0
12 0.8 0
12.4 0.8 0
12.8 0.8 0
13.2 0.8 0
13.6 0.8 0
14 0.8 0
14.4 0.8 0
14.8 0.8 0
15.2 0.8 0
15.6 0.8 0
16 0.8 0
16.4 0.8 0
16.8 0.8 0
17.2 0.8 0
17.6 0.8 0
18 0.8 0
18.4 0.8 0
18.8 0.8 0
19.2 0.8 0
19.6 0.8 0
20 0.8 0
20.4 0.8 0
20.8 0.8 0
21.2 0.8 0
21.6 0.8 0
22 0.8 0
22.4 0.8 0
22.8 0.8 0
23.2 0.8 0
23.6 0.8 0
24 0.8 0
24.4 0.8 0
24.8 0.8 0
25.2 0.8 0
25.6 0.8 0
26 0.8 0
26.4 0.8 0
26.8 0.8 0
27.2 0.8 0
27.6 0.8 0
28 0.8 0
28.4 0.8 0
28.8 0.8 0
29.2 0.8 0
29.6 0.8 0
30 0.8 0
30.4 0.8 0
30.8 0.8 0
31.2 0.8 0
31.6 0.8 0
32 0.8 0
32.4 0.8 0
32.8 0.8 0
33.2 0.8 0
33.6 0.8 0
34 0.8 0
34.4 0.8 0
34.8 0.8 0
35.2 0.8 0
35.6 0.8 0
36 0.8 0
36.4 0.8 0
36.8 0.8 0
37.2 0.8 0
37.6 0.8 0
38 0.8 0
38.4 0.8 0
38.8 0.8 0
39.2 0.8 0
39.6 0.8 0
40 0.8 0
40.4 0.8 0
0 0.9 0
0.4 0.9 0
0.8 0.9 0
1.2 0.9 0
1.6 0.9 0
2 0.9 0
2.4 0.9 0
2.8 0.9 0
3.2 0.9 0
3.6 0.9 0
4 0.9 0
4.4 0.9 0
4.8 0.9 0
5.2 0.9 0
5.6 0.9 0
6 0.9 0
6.4 0.9 0
6.8 0.9 0
7.2 0.9 0
7.6 0.9 0
8 0.9 0
8.4 0.9 0
8.8 0.9 0
9.2 0.9 0
9.6 0.9 0
10 0.9 0
10.4 0.9 0
10.8 0.9 0
11.2 0.9 0
11.6 0.9 0
12 0.9 0
12.4 0.9 0
12.8 0.9 0
13.2 0.9 0
13.6 0.9 0
14 0.9 0
14.4 0.9 0
14.8 0.9 0
15.2 0.9 0
15.6 0.9 0
16 0.9 0
16.4 0.9 0
16.8 0.9 0
17.2 0.9 0
17.6 0.9 0
18 0.9 0
18.4 0.9 0
18.8 0.9 0
19.2 0.9 0
19.6 0.9 0
20 0.9 0
20.4 0.9 0
20.8 0.9 0
21.2 0.9 0
21.6 0.9 0
22 0.9 0
22.4 0.9 0
22.8 0.9 0
23.2 0.9 0
23.6 0.9 0
24 0.9 0
24.4 0.9 0
24.8 0.9 0
25.2 0.9 0
25.6 0.9 0
26 0.9 0
26.4 0.9 0
26.8 0.9 0
27.2 0.9 0
27.6 0.9 0
28 0.9 0
28.4 0.9 0
28.8 0.9 0
29.2 0.9 0
29.6 0.9 0
30 0.9 0
30.4 0.9 0
30.8 0.9 0
31.2 0.9 0
31.6 0.9 0
32 0.9 0
32.4 0.9 0
32.8 0.9 0
33.2 0.9 0
33.6 0.9 0
34 0.9 0
34.4 0.9 0
34.8 0.9 0
35.2 0.9 0
35.6 0.9 0
36 0.9 0
36.4 0.9 0
36.8 0.9 0
37.2 0.9 0
37.6 0.9 0
38 0.9 0
38.4 0.9 0
38.8 0.9 0
39.2 0.9 0
39.6 0.9 0
40 0.9 0
40.4 0.9 0
0 1 0
0.4 1 0
0.8 1 0
1.2 1 0
1.6 1 0
2 1 0
2.4 1 0
2.8 1 0
3.2 1 0
3.6 1 0
4 1 0
4.4 1 0
4.8 1 0
5.2 1 0
5.6 1 0
6 1 0
6.4 1 0
6.8 1 0
7.2 1 0
7.6 1 0
8 1 0
8.4 1 0
8.8 1 0
9.2 1 0
9.6 1 0
10 1 0
10.4 1 0
10.8 1 0
11.2 1 0
11.6 1 0
12 1 0
12.4 1 0
12.8 1 0
13.2 1 0
13.6 1 0
14 1 0
14.4 1 0
14.8 1 0
15.2 1 0
15.6 1 0
16 1 0
16.4 1 0
16.8 1 0
17.2 1 0
17.6 1 0
18 1 0
18.4 1 0
18.8 1 0
19.2 1 0
19.6 1 0
20 1 0
20.4 1 0
20.8 1 0
21.2 1 0
21.6 1 0
22 1 0
22.4 1 0
22.8 1 0
23.2 1 0
23.6 1 0
24 1 0
24.4 1 0
24.8 1 0
25.2 1 0
25.6 1 0
26 1 0
26.4 1 0
26.8 1 0
27.2 1 0
27.6 1 0
28 1 0
28.4 1 0
28.8 1 0
29.2 1 0
29.6 1 0
30 1 0
30.4 1 0
30.8 1 0
31.2 1 0
31.6 1 0
32 1 0
32.4 1 0
32.8 1 0
33.2 1 0
33.6 1 0
34 1 0
34.4 1 0
34.8 1 0
35.2 1 0
35.6 1 0
36 1 0
36.4 1 0
36.8 1 0
37.2 1 0
37.6 1 0
38 1 0
38.4 1 0
38.8 1 0
39.2 1 0
39.6 1 0
40 1 0
40.4 1 0
0 1.1 0
0.4 1.1 0
0.8 1.1 0
1.2 1.1 0
1.6 1.1 0
2 1.1 0
2.4 1.1 0
2.8 1.1 0
3.2 1.1 0
3.6 1.1 0
4 1.1 0
4.4 1.1 0
4.8 1.1 0
5.2 1.1 0
5.6 1.1 0
6 1.1 0
6.4 1.1 0
6.8 1.1 0
7.2 1.1 0
7.6 1.1 0
8 1.1 0
8.4 1.1 0
8.8 1.1 0
9.2 1.1 0
9.6 1.1 0
10 1.1 0
10.4 1.1 0
10.8 1.1 0
11.2 1.1 0
11.6 1.1 0
12 1.1 0
12.4 1.1 0
12.8 1.1 0
13.2 1.1 0
13.6 1.1 0
14 1.1 0
14.4 1.1 0
14.8 1.1 0
15.2 1.1 0
15.6 1.1 0
16 1.1 0
16.4 1.1 0
16.8 1.1 0
17.2 1.1 0
17.6 1.1 0
18 1.1 0
18.4 1.1 0
18.8 1.1 0
19.2 1.1 0
19.6 1.1 0
20 1.1 0
20.4 1.1 0
20.8 1.1 0
21.2 1.1 0
21.6 1.1 0
22 1.1 0
22.4 1.1 0
22.8 1.1 0
23.2 1.1 0
23.6 1.1 0
24 1.1 0
24.4 1.1 0
24.8 1.1 0
25.2 1.1 0
25.6 1.1 0
26 1.1 0
26.4 1.1 0
26.8 1.1 0
27.2 1.1 0
27.6 1.1 0
28 1.1 0
28.4 1.1 0
28.8 1.1 0
29.2 1.1 0
29.6 1.1 0
30 1.1 0
30.4 1.1 0
30.8 1.1 0
31.2 1.1 0
31.6 1.1 0
32 1.1 0
32.4 1.1 0
32.8 1.1 0
33.2 1.1 0
33.6 1.1 0
34 1.1 0
34.4 1.1 0
34.8 1.1 0
35.2 1.1 0
35.6 1.1 0
36 1.1 0
36.4 1.1 0
36.8 1.1 0
37.2 1.1 0
37.6 1.1 0
38 1.1 0
38.4 1.1 0
38.8 1.1 0
39.2 1.1 0
39.6 1.1 0
40 1.1 0
40.4 1.1 0

POINT_DATA 1224

SCALARS p double
LOOKUP_TABLE default
12.5064
12.5064
11.7892
11.0626
10.4294
9.89869
9.45341
9.07118
8.73334
8.4268
8.1431
7.87674
7.62402
7.3823
7.14959
6.92429
6.7051
6.49095
6.28093
6.07429
5.8704
5.66873
5.46883
5.27035
5.07297
4.87645
4.68059
4.48522
4.29021
4.09545
3.90087
3.70639
3.51197
3.31757
3.12317
2.92876
2.73431
2.53981
2.34526
2.15065
1.95598
1.76125
1.56646
1.37161
1.1767
0.981733
0.786707
0.591627
0.396499
0.201325
0.00611258
-0.189134
-0.38441
-0.579708
-0.775025
-0.970355
-1.1657
-1.36104
-1.55639
-1.75174
-1.9471
-2.14245
-2.3378
-2.53315
-2.7285
-2.92385
-3.1192
-3.31455
-3.50989
-3.70524
-3.90058
-4.09593
-4.29127
-4.48662
-4.68196
-4.8773
-5.07265
-5.26799
-5.46333
-5.65867
-5.85402
-6.04936
-6.2447
-6.44005
-6.63539
-6.83073
-7.02607
-7.22142
-7.41676
-7.6121
-7.80745
-8.0028
-8.19815
-8.39358
-8.58915
-8.78572
-8.9844
-9.19722
-9.44326
-9.87715
-11.4529
11.4529
12.5064
12.5064
11.7892
11.0626
10.4294
9.89869
9.45341
9.07118
8.73334
8.4268
8.1431
7.87674
7.62402
7.3823
7.14959
6.92429
6.7051
6.49095
6.28093
6.07429
5.8704
5.66873
5.46883
5.27035
5.07297
4.87645
4.68059
4.48522
4.29021
4.09545
3.90087
3.70639
3.51197
3.31757
3.12317
2.92876
2.73431
2.53981
2.34526
2.15065
1.95598
1.76125
1.56646
1.37161
1.1767
0.981733
0.786707
0.591627
0.396499
0.201325
0.00611258
-0.189134
-0.38441
-0.579708
-0.775025
-0.970355
-1.1657
-1.36104
-1.55639
-1.75174
-1.9471
-2.14245
-2.3378
-2.53315
-2.7285
-2.92385
-3.1192
-3.31455
-3.50989
-3.70524
-3.90058
-4.09593
-4.29127
-4.48662
-4.68196
-4.8773
-5.07265
-5.26799
-5.46333
-5.65867
-5.85402
-6.04936
-6.2447
-6.44005
-6.63539
-6.83073
-7.02607
-7.22142
-7.41676
-7.6121
-7.80745
-8.0028
-8.19815
-8.39358
-8.58915
-8.78572
-8.9844
-9.19722
-9.44326
-9.87715
-11.4529
11.4529
12.1335
12.1335
11.5636
10.947
10.3838
9.89202
9.46516
9.08972
8.75288
8.44489
8.1589
7.89016
7.63527
7.39167
7.15735
6.93071
6.71039
6.49531
6.28451
6.07722
5.87279
5.67067
5.47041
5.27162
5.07399
4.87726
4.68123
4.48572
4.29059
4.09574
3.90108
3.70655
3.51208
3.31764
3.12322
2.92878
2.7343
2.53979
2.34523
2.15061
1.95593
1.7612
1.56641
1.37156
1.17665
0.981686
0.786665
0.591591
0.396468
0.201301
0.00609285
-0.18915
-0.384421
-0.579716
-0.775031
-0.970359
-1.1657
-1.36104
-1.55639
-1.75174
-1.9471
-2.14245
-2.3378
-2.53315
-2.7285
-2.92385
-3.1192
-3.31455
-3.50989
-3.70524
-3.90058
-4.09593
-4.29127
-4.48662
-4.68196
-4.8773
-5.07265
-5.26799
-5.46333
-5.65867
-5.85402
-6.04936
-6.2447
-6.44005
-6.63539
-6.83073
-7.02607
-7.22142
-7.41676
-7.6121
-7.80745
-8.00279
-8.19814
-8.39353
-8.58893
-8.7849
-8.98134
-9.18511
-9.39985
-9.7221
-10.4305
10.4305
11.8375
11.8375
11.348
10.8096
10.308
9.85866
9.45797
9.09709
8.76741
8.46218
8.17652
7.90685
7.65043
7.4051
7.16906
6.94079
6.71901
6.50262
6.29069
6.08243
5.87716
5.67432
5.47345
5.27414
5.07607
4.87898
4.68264
4.48687
4.29153
4.0965
3.90169
3.70703
3.51246
3.31795
3.12345
2.92895
2.73443
2.53988
2.34528
2.15064
1.95594
1.76119
1.56639
1.37153
1.17661
0.981644
0.786623
0.59155
0.39643
0.201266
0.00606267
-0.189175
-0.384443
-0.579734
-0.775045
-0.97037
-1.16571
-1.36105
-1.5564
-1.75175
-1.9471
-2.14245
-2.3378
-2.53315
-2.7285
-2.92385
-3.1192
-3.31455
-3.50989
-3.70524
-3.90058
-4.09593
-4.29127
-4.48662
-4.68196
-4.8773
-5.07265
-5.26799
-5.46333
-5.65867
-5.85402
-6.04936
-6.2447
-6.44005
-6.63539
-6.83073
-7.02607
-7.22142
-7.41676
-7.6121
-7.80744
-8.00279
-8.19812
-8.39344
-8.58862
-8.78363
-8.97677
-9.16726
-9.32949
-9.48629
-9.05556
9.05556
11.6467
11.6467
11.2027
10.7103
10.2472
9.82659
9.44577
9.09773
8.77581
8.47487
8.19119
7.92201
7.66518
7.41892
7.18167
6.95209
6.729
6.51137
6.29829
6.08898
5.88278
5.67912
5.47752
5.27759
5.07898
4.88142
4.68468
4.48857
4.29293
4.09766
3.90264
3.70781
3.51309
3.31846
3.12387
2.92929
2.7347
2.54008
2.34544
2.15075
1.95602
1.76124
1.56641
1.37154
1.17661
0.981628
0.786599
0.591522
0.396399
0.201235
0.00603176
-0.189204
-0.384469
-0.579758
-0.775065
-0.970387
-1.16572
-1.36106
-1.55641
-1.75176
-1.94711
-2.14246
-2.33781
-2.53316
-2.72851
-2.92385
-3.1192
-3.31455
-3.50989
-3.70524
-3.90058
-4.09593
-4.29127
-4.48662
-4.68196
-4.8773
-5.07265
-5.26799
-5.46333
-5.65867
-5.85402
-6.04936
-6.2447
-6.44005
-6.63539
-6.83073
-7.02607
-7.22142
-7.41676
-7.6121
-7.80744
-8.00278
-8.1981
-8.39336
-8.58833
-8.78252
-8.97238
-9.1521
-9.26031
-9.28048
-7.81773
7.81773
11.5538
11.5538
11.1312
10.6608
10.2159
9.80937
9.43864
9.09752
8.78014
8.48201
8.19988
7.93138
7.67463
7.42804
7.19023
6.95995
6.7361
6.51769
6.30387
6.09386
5.88702
5.68278
5.48067
5.28027
5.08126
4.88335
4.68631
4.48993
4.29408
4.09861
3.90343
3.70846
3.51363
3.3189
3.12422
2.92957
2.73493
2.54027
2.34558
2.15086
1.9561
1.7613
1.56645
1.37156
1.17662
0.981631
0.786594
0.591511
0.396384
0.201217
0.00601307
-0.189223
-0.384487
-0.579774
-0.77508
-0.9704
-1.16573
-1.36107
-1.55641
-1.75176
-1.94711
-2.14246
-2.33781
-2.53316
-2.72851
-2.92385
-3.1192
-3.31455
-3.50989
-3.70524
-3.90058
-4.09593
-4.29127
-4.48662
-4.68196
-4.8773
-5.07265
-5.26799
-5.46333
-5.65867
-5.85402
-6.04936
-6.2447
-6.44005
-6.63539
-6.83073
-7.02607
-7.22142
-7.41676
-7.6121
-7.80744
-8.00278
-8.19809
-8.39331
-8.58815
-8.78193
-8.96963
-9.14398
-9.21781
-9.16575
-7.09759
7.09759
11.5538
11.5538
11.1312
10.6608
10.2159
9.80937
9.43864
9.09752
8.78014
8.48201
8.19988
7.93138
7.67463
7.42804
7.19023
6.95995
6.7361
6.51769
6.30387
6.09386
5.88702
5.68278
5.48067
5.28027
5.08126
4.88335
4.68631
4.48993
4.29408
4.09861
3.90343
3.70846
3.51363
3.3189
3.12422
2.92957
2.73493
2.54027
2.34558
2.15086
1.9561
1.7613
1.56645
1.37156
1.17662
0.981631
0.786594
0.591511
0.396384
0.201217
0.00601294
-0.189223
-0.384487
-0.579774
-0.77508
-0.9704
-1.16573
-1.36107
-1.55641
-1.75176
-1.94711
-2.14246
-2.33781
-2.53316
-2.72851
-2.92385
-3.1192
-3.31455
-3.50989
-3.70524
-3.90058
-4.09593
-4.29127
-4.48662
-4.68196
-4.8773
-5.07265
-5.26799
-5.46333
-5.65867
-5.85402
-6.04936
-6.2447
-6.44005
-6.63539
-6.83073
-7.02607
-7.22142
-7.41676
-7.6121
-7.80744
-8.00278
-8.19809
-8.39331
-8.58815
-8.78193
-8.96963
-9.14398
-9.21781
-9.16575
-7.09759
7.09759
11.6467
11.6467
11.2027
10.7103
10.2472
9.82659
9.44577
9.09773
8.77581
8.47487
8.19119
7.92201
7.66518
7.41892
7.18167
6.95209
6.729
6.51137
6.29829
6.08898
5.88278
5.67912
5.47752
5.27759
5.07898
4.88142
4.68468
4.48857
4.29293
4.09766
3.90264
3.70781
3.51309
3.31846
3.12387
2.92929
2.7347
2.54008
2.34544
2.15075
1.95602
1.76124
1.56641
1.37154
1.17661
0.981628
0.786599
0.591522
0.396399
0.201234
0.00603139
-0.189205
-0.384469
-0.579758
-0.775065
-0.970387
-1.16572
-1.36106
-1.55641
-1.75175
-1.9471
-2.14246
-2.33781
-2.53316
-2.72851
-2.92385
-3.1192
-3.31455
-3.50989
-3.70524
-3.90058
-4.09593
-4.29127
-4.48662
-4.68196
-4.8773
-5.07265
-5.26799
-5.46333
-5.65867
-5.85402
-6.04936
-6.2447
-6.44005
-6.63539
-6.83073
-7.02607
-7.22142
-7.41676
-7.6121
-7.80744
-8.00278
-8.1981
-8.39336
-8.58833
-8.78252
-8.97238
-9.1521
-9.26031
-9.28048
-7.81773
7.81773
11.8375
11.8375
11.348
10.8096
10.308
9.85866
9.45797
9.09709
8.7674
8.46218
8.17652
7.90685
7.65043
7.4051
7.16906
6.94079
6.71901
6.50262
6.29069
6.08243
5.87716
5.67432
5.47345
5.27414
5.07607
4.87898
4.68264
4.48687
4.29153
4.0965
3.90169
3.70703
3.51246
3.31795
3.12345
2.92895
2.73443
2.53988
2.34528
2.15064
1.95594
1.76119
1.56639
1.37153
1.17661
0.981644
0.786622
0.59155
0.39643
0.201266
0.00606213
-0.189176
-0.384443
-0.579734
-0.775045
-0.97037
-1.16571
-1.36105
-1.5564
-1.75175
-1.9471
-2.14245
-2.3378
-2.53315
-2.7285
-2.92385
-3.1192
-3.31455
-3.50989
-3.70524
-3.90058
-4.09593
-4.29127
-4.48662
-4.68196
-4.8773
-5.07265
-5.26799
-5.46333
-5.65867
-5.85402
-6.04936
-6.2447
-6.44005
-6.63539
-6.83073
-7.02607
-7.22142
-7.41676
-7.6121
-7.80744
-8.00279
-8.19812
-8.39344
-8.58862
-8.78363
-8.97677
-9.16726
-9.32949
-9.48629
-9.05556
9.05556
12.1335
12.1335
11.5636
10.947
10.3838
9.89202
9.46516
9.08972
8.75288
8.44489
8.1589
7.89016
7.63527
7.39167
7.15735
6.93071
6.71039
6.49531
6.28451
6.07722
5.87279
5.67067
5.47041
5.27162
5.07399
4.87726
4.68123
4.48572
4.29059
4.09574
3.90108
3.70655
3.51208
3.31764
3.12322
2.92878
2.7343
2.53979
2.34523
2.15061
1.95594
1.7612
1.56641
1.37156
1.17665
0.981686
0.786665
0.591591
0.396468
0.2013
0.00609223
-0.18915
-0.384421
-0.579717
-0.775031
-0.970359
-1.1657
-1.36104
-1.55639
-1.75174
-1.9471
-2.14245
-2.3378
-2.53315
-2.7285
-2.92385
-3.1192
-3.31455
-3.50989
-3.70524
-3.90058
-4.09593
-4.29127
-4.48662
-4.68196
-4.8773
-5.07265
-5.26799
-5.46333
-5.65867
-5.85402
-6.04936
-6.2447
-6.44005
-6.63539
-6.83073
-7.02607
-7.22142
-7.41676
-7.6121
-7.80745
-8.00279
-8.19814
-8.39353
-8.58893
-8.7849
-8.98134
-9.18511
-9.39986
-9.7221
-10.4305
10.4305
12.5064
12.5064
11.7892
11.0626
10.4294
9.89869
9.45341
9.07118
8.73334
8.4268
8.1431
7.87674
7.62402
7.3823
7.14959
6.92429
6.7051
6.49095
6.28093
6.07429
5.8704
5.66873
5.46883
5.27035
5.07297
4.87645
4.68059
4.48522
4.29021
4.09545
3.90087
3.70639
3.51197
3.31757
3.12317
2.92876
2.73431
2.53981
2.34526
2.15065
1.95598
1.76126
1.56646
1.37161
1.1767
0.981732
0.786706
0.591627
0.396498
0.201325
0.0061119
-0.189135
-0.38441
-0.579708
-0.775025
-0.970355
-1.16569
-1.36104
-1.55639
-1.75174
-1.9471
-2.14245
-2.3378
-2.53315
-2.7285
-2.92385
-3.1192
-3.31455
-3.50989
-3.70524
-3.90058
-4.09593
-4.29127
-4.48662
-4.68196
-4.8773
-5.07265
-5.26799
-5.46333
-5.65867
-5.85402
-6.04936
-6.2447
-6.44005
-6.63539
-6.83073
-7.02607
-7.22142
-7.41676
-7.6121
-7.80745
-8.0028
-8.19815
-8.39358
-8.58915
-8.78572
-8.9844
-9.19722
-9.44326
-9.87716
-11.4529
11.4529
12.5064
12.5064
11.7892
11.0626
10.4294
9.89869
9.45341
9.07118
8.73334
8.4268
8.1431
7.87674
7.62402
7.3823
7.14959
6.92429
6.7051
6.49095
6.28093
6.07429
5.8704
5.66873
5.46883
5.27035
5.07297
4.87645
4.68059
4.48522
4.29021
4.09545
3.90087
3.70639
3.51197
3.31757
3.12317
2.92876
2.73431
2.53981
2.34526
2.15065
1.95598
1.76126
1.56646
1.37161
1.1767
0.981732
0.786706
0.591627
0.396498
0.201325
0.0061119
-0.189135
-0.38441
-0.579708
-0.775025
-0.970355
-1.16569
-1.36104
-1.55639
-1.75174
-1.9471
-2.14245
-2.3378
-2.53315
-2.7285
-2.92385
-3.1192
-3.31455
-3.50989
-3.70524
-3.90058
-4.09593
-4.29127
-4.48662
-4.68196
-4.8773
-5.07265
-5.26799
-5.46333
-5.65867
-5.85402
-6.04936
-6.2447
-6.44005
-6.63539
-6.83073
-7.02607
-7.22142
-7.41676
-7.6121
-7.80745
-8.0028
-8.19815
-8.39358
-8.58915
-8.78572
-8.9844
-9.19722
-9.44326
-9.87716
-11.4529
11.4529
