# vtk DataFile Version 2.0
FlowField
ASCII
DATASET STRUCTURED_GRID
DIMENSIONS 102 12 1 
POINTS 1224 double
0 0 0
0.3 0 0
0.6 0 0
0.9 0 0
1.2 0 0
1.5 0 0
1.8 0 0
2.1 0 0
2.4 0 0
2.7 0 0
3 0 0
3.3 0 0
3.6 0 0
3.9 0 0
4.2 0 0
4.5 0 0
4.8 0 0
5.1 0 0
5.4 0 0
5.7 0 0
6 0 0
6.3 0 0
6.6 0 0
6.9 0 0
7.2 0 0
7.5 0 0
7.8 0 0
8.1 0 0
8.4 0 0
8.7 0 0
9 0 0
9.3 0 0
9.6 0 0
9.9 0 0
10.2 0 0
10.5 0 0
10.8 0 0
11.1 0 0
11.4 0 0
11.7 0 0
12 0 0
12.3 0 0
12.6 0 0
12.9 0 0
13.2 0 0
13.5 0 0
13.8 0 0
14.1 0 0
14.4 0 0
14.7 0 0
15 0 0
15.3 0 0
15.6 0 0
15.9 0 0
16.2 0 0
16.5 0 0
16.8 0 0
17.1 0 0
17.4 0 0
17.7 0 0
18 0 0
18.3 0 0
18.6 0 0
18.9 0 0
19.2 0 0
19.5 0 0
19.8 0 0
20.1 0 0
20.4 0 0
20.7 0 0
21 0 0
21.3 0 0
21.6 0 0
21.9 0 0
22.2 0 0
22.5 0 0
22.8 0 0
23.1 0 0
23.4 0 0
23.7 0 0
24 0 0
24.3 0 0
24.6 0 0
24.9 0 0
25.2 0 0
25.5 0 0
25.8 0 0
26.1 0 0
26.4 0 0
26.7 0 0
27 0 0
27.3 0 0
27.6 0 0
27.9 0 0
28.2 0 0
28.5 0 0
28.8 0 0
29.1 0 0
29.4 0 0
29.7 0 0
30 0 0
30.3 0 0
0 0.1 0
0.3 0.1 0
0.6 0.1 0
0.9 0.1 0
1.2 0.1 0
1.5 0.1 0
1.8 0.1 0
2.1 0.1 0
2.4 0.1 0
2.7 0.1 0
3 0.1 0
3.3 0.1 0
3.6 0.1 0
3.9 0.1 0
4.2 0.1 0
4.5 0.1 0
4.8 0.1 0
5.1 0.1 0
5.4 0.1 0
5.7 0.1 0
6 0.1 0
6.3 0.1 0
6.6 0.1 0
6.9 0.1 0
7.2 0.1 0
7.5 0.1 0
7.8 0.1 0
8.1 0.1 0
8.4 0.1 0
8.7 0.1 0
9 0.1 0
9.3 0.1 0
9.6 0.1 0
9.9 0.1 0
10.2 0.1 0
10.5 0.1 0
10.8 0.1 0
11.1 0.1 0
11.4 0.1 0
11.7 0.1 0
12 0.1 0
12.3 0.1 0
12.6 0.1 0
12.9 0.1 0
13.2 0.1 0
13.5 0.1 0
13.8 0.1 0
14.1 0.1 0
14.4 0.1 0
14.7 0.1 0
15 0.1 0
15.3 0.1 0
15.6 0.1 0
15.9 0.1 0
16.2 0.1 0
16.5 0.1 0
16.8 0.1 0
17.1 0.1 0
17.4 0.1 0
17.7 0.1 0
18 0.1 0
18.3 0.1 0
18.6 0.1 0
18.9 0.1 0
19.2 0.1 0
19.5 0.1 0
19.8 0.1 0
20.1 0.1 0
20.4 0.1 0
20.7 0.1 0
21 0.1 0
21.3 0.1 0
21.6 0.1 0
21.9 0.1 0
22.2 0.1 0
22.5 0.1 0
22.8 0.1 0
23.1 0.1 0
23.4 0.1 0
23.7 0.1 0
24 0.1 0
24.3 0.1 0
24.6 0.1 0
24.9 0.1 0
25.2 0.1 0
25.5 0.1 0
25.8 0.1 0
26.1 0.1 0
26.4 0.1 0
26.7 0.1 0
27 0.1 0
27.3 0.1 0
27.6 0.1 0
27.9 0.1 0
28.2 0.1 0
28.5 0.1 0
28.8 0.1 0
29.1 0.1 0
29.4 0.1 0
29.7 0.1 0
30 0.1 0
30.3 0.1 0
0 0.2 0
0.3 0.2 0
0.6 0.2 0
0.9 0.2 0
1.2 0.2 0
1.5 0.2 0
1.8 0.2 0
2.1 0.2 0
2.4 0.2 0
2.7 0.2 0
3 0.2 0
3.3 0.2 0
3.6 0.2 0
3.9 0.2 0
4.2 0.2 0
4.5 0.2 0
4.8 0.2 0
5.1 0.2 0
5.4 0.2 0
5.7 0.2 0
6 0.2 0
6.3 0.2 0
6.6 0.2 0
6.9 0.2 0
7.2 0.2 0
7.5 0.2 0
7.8 0.2 0
8.1 0.2 0
8.4 0.2 0
8.7 0.2 0
9 0.2 0
9.3 0.2 0
9.6 0.2 0
9.9 0.2 0
10.2 0.2 0
10.5 0.2 0
10.8 0.2 0
11.1 0.2 0
11.4 0.2 0
11.7 0.2 0
12 0.2 0
12.3 0.2 0
12.6 0.2 0
12.9 0.2 0
13.2 0.2 0
13.5 0.2 0
13.8 0.2 0
14.1 0.2 0
14.4 0.2 0
14.7 0.2 0
15 0.2 0
15.3 0.2 0
15.6 0.2 0
15.9 0.2 0
16.2 0.2 0
16.5 0.2 0
16.8 0.2 0
17.1 0.2 0
17.4 0.2 0
17.7 0.2 0
18 0.2 0
18.3 0.2 0
18.6 0.2 0
18.9 0.2 0
19.2 0.2 0
19.5 0.2 0
19.8 0.2 0
20.1 0.2 0
20.4 0.2 0
20.7 0.2 0
21 0.2 0
21.3 0.2 0
21.6 0.2 0
21.9 0.2 0
22.2 0.2 0
22.5 0.2 0
22.8 0.2 0
23.1 0.2 0
23.4 0.2 0
23.7 0.2 0
24 0.2 0
24.3 0.2 0
24.6 0.2 0
24.9 0.2 0
25.2 0.2 0
25.5 0.2 0
25.8 0.2 0
26.1 0.2 0
26.4 0.2 0
26.7 0.2 0
27 0.2 0
27.3 0.2 0
27.6 0.2 0
27.9 0.2 0
28.2 0.2 0
28.5 0.2 0
28.8 0.2 0
29.1 0.2 0
29.4 0.2 0
29.7 0.2 0
30 0.2 0
30.3 0.2 0
0 0.3 0
0.3 0.3 0
0.6 0.3 0
0.9 0.3 0
1.2 0.3 0
1.5 0.3 0
1.8 0.3 0
2.1 0.3 0
2.4 0.3 0
2.7 0.3 0
3 0.3 0
3.3 0.3 0
3.6 0.3 0
3.9 0.3 0
4.2 0.3 0
4.5 0.3 0
4.8 0.3 0
5.1 0.3 0
5.4 0.3 0
5.7 0.3 0
6 0.3 0
6.3 0.3 0
6.6 0.3 0
6.9 0.3 0
7.2 0.3 0
7.5 0.3 0
7.8 0.3 0
8.1 0.3 0
8.4 0.3 0
8.7 0.3 0
9 0.3 0
9.3 0.3 0
9.6 0.3 0
9.9 0.3 0
10.2 0.3 0
10.5 0.3 0
10.8 0.3 0
11.1 0.3 0
11.4 0.3 0
11.7 0.3 0
12 0.3 0
12.3 0.3 0
12.6 0.3 0
12.9 0.3 0
13.2 0.3 0
13.5 0.3 0
13.8 0.3 0
14.1 0.3 0
14.4 0.3 0
14.7 0.3 0
15 0.3 0
15.3 0.3 0
15.6 0.3 0
15.9 0.3 0
16.2 0.3 0
16.5 0.3 0
16.8 0.3 0
17.1 0.3 0
17.4 0.3 0
17.7 0.3 0
18 0.3 0
18.3 0.3 0
18.6 0.3 0
18.9 0.3 0
19.2 0.3 0
19.5 0.3 0
19.8 0.3 0
20.1 0.3 0
20.4 0.3 0
20.7 0.3 0
21 0.3 0
21.3 0.3 0
21.6 0.3 0
21.9 0.3 0
22.2 0.3 0
22.5 0.3 0
22.8 0.3 0
23.1 0.3 0
23.4 0.3 0
23.7 0.3 0
24 0.3 0
24.3 0.3 0
24.6 0.3 0
24.9 0.3 0
25.2 0.3 0
25.5 0.3 0
25.8 0.3 0
26.1 0.3 0
26.4 0.3 0
26.7 0.3 0
27 0.3 0
27.3 0.3 0
27.6 0.3 0
27.9 0.3 0
28.2 0.3 0
28.5 0.3 0
28.8 0.3 0
29.1 0.3 0
29.4 0.3 0
29.7 0.3 0
30 0.3 0
30.3 0.3 0
0 0.4 0
0.3 0.4 0
0.6 0.4 0
0.9 0.4 0
1.2 0.4 0
1.5 0.4 0
1.8 0.4 0
2.1 0.4 0
2.4 0.4 0
2.7 0.4 0
3 0.4 0
3.3 0.4 0
3.6 0.4 0
3.9 0.4 0
4.2 0.4 0
4.5 0.4 0
4.8 0.4 0
5.1 0.4 0
5.4 0.4 0
5.7 0.4 0
6 0.4 0
6.3 0.4 0
6.6 0.4 0
6.9 0.4 0
7.2 0.4 0
7.5 0.4 0
7.8 0.4 0
8.1 0.4 0
8.4 0.4 0
8.7 0.4 0
9 0.4 0
9.3 0.4 0
9.6 0.4 0
9.9 0.4 0
10.2 0.4 0
10.5 0.4 0
10.8 0.4 0
11.1 0.4 0
11.4 0.4 0
11.7 0.4 0
12 0.4 0
12.3 0.4 0
12.6 0.4 0
12.9 0.4 0
13.2 0.4 0
13.5 0.4 0
13.8 0.4 0
14.1 0.4 0
14.4 0.4 0
14.7 0.4 0
15 0.4 0
15.3 0.4 0
15.6 0.4 0
15.9 0.4 0
16.2 0.4 0
16.5 0.4 0
16.8 0.4 0
17.1 0.4 0
17.4 0.4 0
17.7 0.4 0
18 0.4 0
18.3 0.4 0
18.6 0.4 0
18.9 0.4 0
19.2 0.4 0
19.5 0.4 0
19.8 0.4 0
20.1 0.4 0
20.4 0.4 0
20.7 0.4 0
21 0.4 0
21.3 0.4 0
21.6 0.4 0
21.9 0.4 0
22.2 0.4 0
22.5 0.4 0
22.8 0.4 0
23.1 0.4 0
23.4 0.4 0
23.7 0.4 0
24 0.4 0
24.3 0.4 0
24.6 0.4 0
24.9 0.4 0
25.2 0.4 0
25.5 0.4 0
25.8 0.4 0
26.1 0.4 0
26.4 0.4 0
26.7 0.4 0
27 0.4 0
27.3 0.4 0
27.6 0.4 0
27.9 0.4 0
28.2 0.4 0
28.5 0.4 0
28.8 0.4 0
29.1 0.4 0
29.4 0.4 0
29.7 0.4 0
30 0.4 0
30.3 0.4 0
0 0.5 0
0.3 0.5 0
0.6 0.5 0
0.9 0.5 0
1.2 0.5 0
1.5 0.5 0
1.8 0.5 0
2.1 0.5 0
2.4 0.5 0
2.7 0.5 0
3 0.5 0
3.3 0.5 0
3.6 0.5 0
3.9 0.5 0
4.2 0.5 0
4.5 0.5 0
4.8 0.5 0
5.1 0.5 0
5.4 0.5 0
5.7 0.5 0
6 0.5 0
6.3 0.5 0
6.6 0.5 0
6.9 0.5 0
7.2 0.5 0
7.5 0.5 0
7.8 0.5 0
8.1 0.5 0
8.4 0.5 0
8.7 0.5 0
9 0.5 0
9.3 0.5 0
9.6 0.5 0
9.9 0.5 0
10.2 0.5 0
10.5 0.5 0
10.8 0.5 0
11.1 0.5 0
11.4 0.5 0
11.7 0.5 0
12 0.5 0
12.3 0.5 0
12.6 0.5 0
12.9 0.5 0
13.2 0.5 0
13.5 0.5 0
13.8 0.5 0
14.1 0.5 0
14.4 0.5 0
14.7 0.5 0
15 0.5 0
15.3 0.5 0
15.6 0.5 0
15.9 0.5 0
16.2 0.5 0
16.5 0.5 0
16.8 0.5 0
17.1 0.5 0
17.4 0.5 0
17.7 0.5 0
18 0.5 0
18.3 0.5 0
18.6 0.5 0
18.9 0.5 0
19.2 0.5 0
19.5 0.5 0
19.8 0.5 0
20.1 0.5 0
20.4 0.5 0
20.7 0.5 0
21 0.5 0
21.3 0.5 0
21.6 0.5 0
21.9 0.5 0
22.2 0.5 0
22.5 0.5 0
22.8 0.5 0
23.1 0.5 0
23.4 0.5 0
23.7 0.5 0
24 0.5 0
24.3 0.5 0
24.6 0.5 0
24.9 0.5 0
25.2 0.5 0
25.5 0.5 0
25.8 0.5 0
26.1 0.5 0
26.4 0.5 0
26.7 0.5 0
27 0.5 0
27.3 0.5 0
27.6 0.5 0
27.9 0.5 0
28.2 0.5 0
28.5 0.5 0
28.8 0.5 0
29.1 0.5 0
29.4 0.5 0
29.7 0.5 0
30 0.5 0
30.3 0.5 0
0 0.6 0
0.3 0.6 0
0.6 0.6 0
0.9 0.6 0
1.2 0.6 0
1.5 0.6 0
1.8 0.6 0
2.1 0.6 0
2.4 0.6 0
2.7 0.6 0
3 0.6 0
3.3 0.6 0
3.6 0.6 0
3.9 0.6 0
4.2 0.6 0
4.5 0.6 0
4.8 0.6 0
5.1 0.6 0
5.4 0.6 0
5.7 0.6 0
6 0.6 0
6.3 0.6 0
6.6 0.6 0
6.9 0.6 0
7.2 0.6 0
7.5 0.6 0
7.8 0.6 0
8.1 0.6 0
8.4 0.6 0
8.7 0.6 0
9 0.6 0
9.3 0.6 0
9.6 0.6 0
9.9 0.6 0
10.2 0.6 0
10.5 0.6 0
10.8 0.6 0
11.1 0.6 0
11.4 0.6 0
11.7 0.6 0
12 0.6 0
12.3 0.6 0
12.6 0.6 0
12.9 0.6 0
13.2 0.6 0
13.5 0.6 0
13.8 0.6 0
14.1 0.6 0
14.4 0.6 0
14.7 0.6 0
15 0.6 0
15.3 0.6 0
15.6 0.6 0
15.9 0.6 0
16.2 0.6 0
16.5 0.6 0
16.8 0.6 0
17.1 0.6 0
17.4 0.6 0
17.7 0.6 0
18 0.6 0
18.3 0.6 0
18.6 0.6 0
18.9 0.6 0
19.2 0.6 0
19.5 0.6 0
19.8 0.6 0
20.1 0.6 0
20.4 0.6 0
20.7 0.6 0
21 0.6 0
21.3 0.6 0
21.6 0.6 0
21.9 0.6 0
22.2 0.6 0
22.5 0.6 0
22.8 0.6 0
23.1 0.6 0
23.4 0.6 0
23.7 0.6 0
24 0.6 0
24.3 0.6 0
24.6 0.6 0
24.9 0.6 0
25.2 0.6 0
25.5 0.6 0
25.8 0.6 0
26.1 0.6 0
26.4 0.6 0
26.7 0.6 0
27 0.6 0
27.3 0.6 0
27.6 0.6 0
27.9 0.6 0
28.2 0.6 0
28.5 0.6 0
28.8 0.6 0
29.1 0.6 0
29.4 0.6 0
29.7 0.6 0
30 0.6 0
30.3 0.6 0
0 0.7 0
0.3 0.7 0
0.6 0.7 0
0.9 0.7 0
1.2 0.7 0
1.5 0.7 0
1.8 0.7 0
2.1 0.7 0
2.4 0.7 0
2.7 0.7 0
3 0.7 0
3.3 0.7 0
3.6 0.7 0
3.9 0.7 0
4.2 0.7 0
4.5 0.7 0
4.8 0.7 0
5.1 0.7 0
5.4 0.7 0
5.7 0.7 0
6 0.7 0
6.3 0.7 0
6.6 0.7 0
6.9 0.7 0
7.2 0.7 0
7.5 0.7 0
7.8 0.7 0
8.1 0.7 0
8.4 0.7 0
8.7 0.7 0
9 0.7 0
9.3 0.7 0
9.6 0.7 0
9.9 0.7 0
10.2 0.7 0
10.5 0.7 0
10.8 0.7 0
11.1 0.7 0
11.4 0.7 0
11.7 0.7 0
12 0.7 0
12.3 0.7 0
12.6 0.7 0
12.9 0.7 0
13.2 0.7 0
13.5 0.7 0
13.8 0.7 0
14.1 0.7 0
14.4 0.7 0
14.7 0.7 0
15 0.7 0
15.3 0.7 0
15.6 0.7 0
15.9 0.7 0
16.2 0.7 0
16.5 0.7 0
16.8 0.7 0
17.1 0.7 0
17.4 0.7 0
17.7 0.7 0
18 0.7 0
18.3 0.7 0
18.6 0.7 0
18.9 0.7 0
19.2 0.7 0
19.5 0.7 0
19.8 0.7 0
20.1 0.7 0
20.4 0.7 0
20.7 0.7 0
21 0.7 0
21.3 0.7 0
21.6 0.7 0
21.9 0.7 0
22.2 0.7 0
22.5 0.7 0
22.8 0.7 0
23.1 0.7 0
23.4 0.7 0
23.7 0.7 0
24 0.7 0
24.3 0.7 0
24.6 0.7 0
24.9 0.7 0
25.2 0.7 0
25.5 0.7 0
25.8 0.7 0
26.1 0.7 0
26.4 0.7 0
26.7 0.7 0
27 0.7 0
27.3 0.7 0
27.6 0.7 0
27.9 0.7 0
28.2 0.7 0
28.5 0.7 0
28.8 0.7 0
29.1 0.7 0
29.4 0.7 0
29.7 0.7 0
30 0.7 0
30.3 0.7 0
0 0.8 0
0.3 0.8 0
0.6 0.8 0
0.9 0.8 0
1.2 0.8 0
1.5 0.8 0
1.8 0.8 0
2.1 0.8 0
2.4 0.8 0
2.7 0.8 0
3 0.8 0
3.3 0.8 0
3.6 0.8 0
3.9 0.8 0
4.2 0.8 0
4.5 0.8 0
4.8 0.8 0
5.1 0.8 0
5.4 0.8 0
5.7 0.8 0
6 0.8 0
6.3 0.8 0
6.6 0.8 0
6.9 0.8 0
7.2 0.8 0
7.5 0.8 0
7.8 0.8 0
8.1 0.8 0
8.4 0.8 0
8.7 0.8 0
9 0.8 0
9.3 0.8 0
9.6 0.8 0
9.9 0.8 0
10.2 0.8 0
10.5 0.8 0
10.8 0.8 0
11.1 0.8 0
11.4 0.8 0
11.7 0.8 0
12 0.8 0
12.3 0.8 0
12.6 0.8 0
12.9 0.8 0
13.2 0.8 0
13.5 0.8 0
13.8 0.8 0
14.1 0.8 0
14.4 0.8 0
14.7 0.8 0
15 0.8 0
15.3 0.8 0
15.6 0.8 0
15.9 0.8 0
16.2 0.8 0
16.5 0.8 0
16.8 0.8 0
17.1 0.8 0
17.4 0.8 0
17.7 0.8 0
18 0.8 0
18.3 0.8 0
18.6 0.8 0
18.9 0.8 0
19.2 0.8 0
19.5 0.8 0
19.8 0.8 0
20.1 0.8 0
20.4 0.8 0
20.7 0.8 0
21 0.8 0
21.3 0.8 0
21.6 0.8 0
21.9 0.8 0
22.2 0.8 0
22.5 0.8 0
22.8 0.8 0
23.1 0.8 0
23.4 0.8 0
23.7 0.8 0
24 0.8 0
24.3 0.8 0
24.6 0.8 0
24.9 0.8 0
25.2 0.8 0
25.5 0.8 0
25.8 0.8 0
26.1 0.8 0
26.4 0.8 0
26.7 0.8 0
27 0.8 0
27.3 0.8 0
27.6 0.8 0
27.9 0.8 0
28.2 0.8 0
28.5 0.8 0
28.8 0.8 0
29.1 0.8 0
29.4 0.8 0
29.7 0.8 0
30 0.8 0
30.3 0.8 0
0 0.9 0
0.3 0.9 0
0.6 0.9 0
0.9 0.9 0
1.2 0.9 0
1.5 0.9 0
1.8 0.9 0
2.1 0.9 0
2.4 0.9 0
2.7 0.9 0
3 0.9 0
3.3 0.9 0
3.6 0.9 0
3.9 0.9 0
4.2 0.9 0
4.5 0.9 0
4.8 0.9 0
5.1 0.9 0
5.4 0.9 0
5.7 0.9 0
6 0.9 0
6.3 0.9 0
6.6 0.9 0
6.9 0.9 0
7.2 0.9 0
7.5 0.9 0
7.8 0.9 0
8.1 0.9 0
8.4 0.9 0
8.7 0.9 0
9 0.9 0
9.3 0.9 0
9.6 0.9 0
9.9 0.9 0
10.2 0.9 0
10.5 0.9 0
10.8 0.9 0
11.1 0.9 0
11.4 0.9 0
11.7 0.9 0
12 0.9 0
12.3 0.9 0
12.6 0.9 0
12.9 0.9 0
13.2 0.9 0
13.5 0.9 0
13.8 0.9 0
14.1 0.9 0
14.4 0.9 0
14.7 0.9 0
15 0.9 0
15.3 0.9 0
15.6 0.9 0
15.9 0.9 0
16.2 0.9 0
16.5 0.9 0
16.8 0.9 0
17.1 0.9 0
17.4 0.9 0
17.7 0.9 0
18 0.9 0
18.3 0.9 0
18.6 0.9 0
18.9 0.9 0
19.2 0.9 0
19.5 0.9 0
19.8 0.9 0
20.1 0.9 0
20.4 0.9 0
20.7 0.9 0
21 0.9 0
21.3 0.9 0
21.6 0.9 0
21.9 0.9 0
22.2 0.9 0
22.5 0.9 0
22.8 0.9 0
23.1 0.9 0
23.4 0.9 0
23.7 0.9 0
24 0.9 0
24.3 0.9 0
24.6 0.9 0
24.9 0.9 0
25.2 0.9 0
25.5 0.9 0
25.8 0.9 0
26.1 0.9 0
26.4 0.9 0
26.7 0.9 0
27 0.9 0
27.3 0.9 0
27.6 0.9 0
27.9 0.9 0
28.2 0.9 0
28.5 0.9 0
28.8 0.9 0
29.1 0.9 0
29.4 0.9 0
29.7 0.9 0
30 0.9 0
30.3 0.9 0
0 1 0
0.3 1 0
0.6 1 0
0.9 1 0
1.2 1 0
1.5 1 0
1.8 1 0
2.1 1 0
2.4 1 0
2.7 1 0
3 1 0
3.3 1 0
3.6 1 0
3.9 1 0
4.2 1 0
4.5 1 0
4.8 1 0
5.1 1 0
5.4 1 0
5.7 1 0
6 1 0
6.3 1 0
6.6 1 0
6.9 1 0
7.2 1 0
7.5 1 0
7.8 1 0
8.1 1 0
8.4 1 0
8.7 1 0
9 1 0
9.3 1 0
9.6 1 0
9.9 1 0
10.2 1 0
10.5 1 0
10.8 1 0
11.1 1 0
11.4 1 0
11.7 1 0
12 1 0
12.3 1 0
12.6 1 0
12.9 1 0
13.2 1 0
13.5 1 0
13.8 1 0
14.1 1 0
14.4 1 0
14.7 1 0
15 1 0
15.3 1 0
15.6 1 0
15.9 1 0
16.2 1 0
16.5 1 0
16.8 1 0
17.1 1 0
17.4 1 0
17.7 1 0
18 1 0
18.3 1 0
18.6 1 0
18.9 1 0
19.2 1 0
19.5 1 0
19.8 1 0
20.1 1 0
20.4 1 0
20.7 1 0
21 1 0
21.3 1 0
21.6 1 0
21.9 1 0
22.2 1 0
22.5 1 0
22.8 1 0
23.1 1 0
23.4 1 0
23.7 1 0
24 1 0
24.3 1 0
24.6 1 0
24.9 1 0
25.2 1 0
25.5 1 0
25.8 1 0
26.1 1 0
26.4 1 0
26.7 1 0
27 1 0
27.3 1 0
27.6 1 0
27.9 1 0
28.2 1 0
28.5 1 0
28.8 1 0
29.1 1 0
29.4 1 0
29.7 1 0
30 1 0
30.3 1 0
0 1.1 0
0.3 1.1 0
0.6 1.1 0
0.9 1.1 0
1.2 1.1 0
1.5 1.1 0
1.8 1.1 0
2.1 1.1 0
2.4 1.1 0
2.7 1.1 0
3 1.1 0
3.3 1.1 0
3.6 1.1 0
3.9 1.1 0
4.2 1.1 0
4.5 1.1 0
4.8 1.1 0
5.1 1.1 0
5.4 1.1 0
5.7 1.1 0
6 1.1 0
6.3 1.1 0
6.6 1.1 0
6.9 1.1 0
7.2 1.1 0
7.5 1.1 0
7.8 1.1 0
8.1 1.1 0
8.4 1.1 0
8.7 1.1 0
9 1.1 0
9.3 1.1 0
9.6 1.1 0
9.9 1.1 0
10.2 1.1 0
10.5 1.1 0
10.8 1.1 0
11.1 1.1 0
11.4 1.1 0
11.7 1.1 0
12 1.1 0
12.3 1.1 0
12.6 1.1 0
12.9 1.1 0
13.2 1.1 0
13.5 1.1 0
13.8 1.1 0
14.1 1.1 0
14.4 1.1 0
14.7 1.1 0
15 1.1 0
15.3 1.1 0
15.6 1.1 0
15.9 1.1 0
16.2 1.1 0
16.5 1.1 0
16.8 1.1 0
17.1 1.1 0
17.4 1.1 0
17.7 1.1 0
18 1.1 0
18.3 1.1 0
18.6 1.1 0
18.9 1.1 0
19.2 1.1 0
19.5 1.1 0
19.8 1.1 0
20.1 1.1 0
20.4 1.1 0
20.7 1.1 0
21 1.1 0
21.3 1.1 0
21.6 1.1 0
21.9 1.1 0
22.2 1.1 0
22.5 1.1 0
22.8 1.1 0
23.1 1.1 0
23.4 1.1 0
23.7 1.1 0
24 1.1 0
24.3 1.1 0
24.6 1.1 0
24.9 1.1 0
25.2 1.1 0
25.5 1.1 0
25.8 1.1 0
26.1 1.1 0
26.4 1.1 0
26.7 1.1 0
27 1.1 0
27.3 1.1 0
27.6 1.1 0
27.9 1.1 0
28.2 1.1 0
28.5 1.1 0
28.8 1.1 0
29.1 1.1 0
29.4 1.1 0
29.7 1.1 0
30 1.1 0
30.3 1.1 0

POINT_DATA 1224

VECTORS velocity double
LOOKUP_TABLE default
-1 0 0
-0.889357 0 0
-0.788369 0 0
-0.727698 0 0
-0.700359 0 0
-0.690706 0 0
-0.687965 0 0
-0.68734 0 0
-0.68723 0 0
-0.687218 0 0
-0.687219 0 0
-0.68722 0 0
-0.687221 0 0
-0.687221 0 0
-0.687221 0 0
-0.687221 0 0
-0.687221 0 0
-0.687221 0 0
-0.687222 0 0
-0.687222 0 0
-0.687222 0 0
-0.687222 0 0
-0.687222 0 0
-0.687222 0 0
-0.687222 0 0
-0.687222 0 0
-0.687222 0 0
-0.687222 0 0
-0.687222 0 0
-0.687222 0 0
-0.687223 0 0
-0.687223 0 0
-0.687223 0 0
-0.687223 0 0
-0.687223 0 0
-0.687223 0 0
-0.687223 0 0
-0.687223 0 0
-0.687223 0 0
-0.687223 0 0
-0.687223 0 0
-0.687223 0 0
-0.687223 0 0
-0.687222 0 0
-0.687222 0 0
-0.687222 0 0
-0.687222 0 0
-0.687222 0 0
-0.687222 0 0
-0.687222 0 0
-0.687222 0 0
-0.687222 0 0
-0.687222 0 0
-0.687222 0 0
-0.687221 0 0
-0.687221 0 0
-0.687221 0 0
-0.687221 0 0
-0.687221 0 0
-0.687221 0 0
-0.68722 0 0
-0.68722 0 0
-0.68722 0 0
-0.68722 0 0
-0.68722 0 0
-0.687219 0 0
-0.687219 0 0
-0.687219 0 0
-0.687219 0 0
-0.687219 0 0
-0.687218 0 0
-0.687218 0 0
-0.687218 0 0
-0.687217 0 0
-0.687217 0 0
-0.687217 0 0
-0.687217 0 0
-0.687216 0 0
-0.687216 0 0
-0.687216 0 0
-0.687216 0 0
-0.687215 0 0
-0.687215 0 0
-0.687215 0 0
-0.687214 0 0
-0.687214 0 0
-0.687214 0 0
-0.687213 0 0
-0.687213 0 0
-0.687213 0 0
-0.687212 0 0
-0.687212 0 0
-0.687212 0 0
-0.687212 0 0
-0.687212 0 0
-0.687213 0 0
-0.687218 0 0
-0.687276 0 0
-0.687313 0 0
-0.688903 0 0
-0.688903 0 0
-1 0 0
1 -0.036881 0
0.889357 0.036881 0
0.788369 0.0336626 0
0.727698 0.0202239 0
0.700359 0.00911276 0
0.690706 0.00321787 0
0.687965 0.000913483 0
0.68734 0.000208633 0
0.68723 3.65927e-05 0
0.687218 3.89721e-06 0
0.687219 -3.18673e-07 0
0.68722 -3.27184e-07 0
0.687221 -1.34836e-07 0
0.687221 -6.58132e-08 0
0.687221 -4.93949e-08 0
0.687221 -4.68555e-08 0
0.687221 -4.7291e-08 0
0.687221 -4.83257e-08 0
0.687222 -4.95241e-08 0
0.687222 -5.08176e-08 0
0.687222 -5.21966e-08 0
0.687222 -5.3659e-08 0
0.687222 -5.52033e-08 0
0.687222 -5.68283e-08 0
0.687222 -5.85327e-08 0
0.687222 -6.03155e-08 0
0.687222 -6.21745e-08 0
0.687222 -6.41074e-08 0
0.687222 -6.61121e-08 0
0.687222 -6.81864e-08 0
0.687223 -7.03278e-08 0
0.687223 -7.25335e-08 0
0.687223 -7.48006e-08 0
0.687223 -7.71267e-08 0
0.687223 -7.95101e-08 0
0.687223 -8.19487e-08 0
0.687223 -8.44409e-08 0
0.687223 -8.69859e-08 0
0.687223 -8.95819e-08 0
0.687223 -9.22249e-08 0
0.687223 -9.49094e-08 0
0.687223 -9.76326e-08 0
0.687223 -1.00393e-07 0
0.687222 -1.03188e-07 0
0.687222 -1.06016e-07 0
0.687222 -1.08876e-07 0
0.687222 -1.11766e-07 0
0.687222 -1.14683e-07 0
0.687222 -1.17614e-07 0
0.687222 -1.20581e-07 0
0.687222 -1.23584e-07 0
0.687222 -1.26622e-07 0
0.687222 -1.29687e-07 0
0.687222 -1.32755e-07 0
0.687221 -1.35803e-07 0
0.687221 -1.38837e-07 0
0.687221 -1.41863e-07 0
0.687221 -1.44886e-07 0
0.687221 -1.47906e-07 0
0.687221 -1.50916e-07 0
0.68722 -1.5391e-07 0
0.68722 -1.56886e-07 0
0.68722 -1.59842e-07 0
0.68722 -1.62777e-07 0
0.68722 -1.6569e-07 0
0.687219 -1.68577e-07 0
0.687219 -1.71436e-07 0
0.687219 -1.74265e-07 0
0.687219 -1.77059e-07 0
0.687219 -1.79818e-07 0
0.687218 -1.82537e-07 0
0.687218 -1.85214e-07 0
0.687218 -1.87846e-07 0
0.687217 -1.90431e-07 0
0.687217 -1.92966e-07 0
0.687217 -1.95448e-07 0
0.687217 -1.97874e-07 0
0.687216 -2.00243e-07 0
0.687216 -2.02551e-07 0
0.687216 -2.04797e-07 0
0.687216 -2.06977e-07 0
0.687215 -2.09089e-07 0
0.687215 -2.11131e-07 0
0.687215 -2.131e-07 0
0.687214 -2.14994e-07 0
0.687214 -2.16811e-07 0
0.687214 -2.18551e-07 0
0.687213 -2.20213e-07 0
0.687213 -2.21803e-07 0
0.687213 -2.2335e-07 0
0.687212 -2.24993e-07 0
0.687212 -2.27355e-07 0
0.687212 -2.33255e-07 0
0.687212 -2.56504e-07 0
0.687212 -3.4901e-07 0
0.687213 -8.99282e-07 0
0.687218 -2.06416e-06 0
0.687276 -1.96216e-05 0
0.687313 -1.24719e-05 0
0.688903 -0.00053032 0
0.688903 -0.00083899 0
1 -0.00083899 0
1 -0.0276309 0
1.02775 0.0276309 0
1.03623 0.0308366 0
1.03857 0.0194427 0
1.03942 0.00882868 0
1.03986 0.00307366 0
1.04009 0.000835665 0
1.0402 0.000171714 0
1.04025 2.179e-05 0
1.04026 -1.18596e-06 0
1.04027 -1.81482e-06 0
1.04027 -7.25826e-07 0
1.04027 -2.34543e-07 0
1.04027 -8.86138e-08 0
1.04027 -5.37823e-08 0
1.04027 -4.71008e-08 0
1.04027 -4.65877e-08 0
1.04027 -4.73312e-08 0
1.04027 -4.83649e-08 0
1.04027 -4.95183e-08 0
1.04027 -5.07641e-08 0
1.04027 -5.20975e-08 0
1.04027 -5.35167e-08 0
1.04027 -5.50204e-08 0
1.04027 -5.6607e-08 0
1.04027 -5.82752e-08 0
1.04027 -6.0024e-08 0
1.04027 -6.18529e-08 0
1.04027 -6.37605e-08 0
1.04027 -6.57443e-08 0
1.04027 -6.78007e-08 0
1.04027 -6.99259e-08 0
1.04027 -7.2116e-08 0
1.04027 -7.43685e-08 0
1.04027 -7.66821e-08 0
1.04027 -7.90555e-08 0
1.04027 -8.14875e-08 0
1.04027 -8.39761e-08 0
1.04027 -8.6518e-08 0
1.04027 -8.91091e-08 0
1.04027 -9.17467e-08 0
1.04027 -9.44294e-08 0
1.04027 -9.71562e-08 0
1.04027 -9.99246e-08 0
1.04026 -1.02732e-07 0
1.04026 -1.05575e-07 0
1.04026 -1.08452e-07 0
1.04026 -1.11355e-07 0
1.04026 -1.14287e-07 0
1.04026 -1.17253e-07 0
1.04026 -1.20244e-07 0
1.04026 -1.23253e-07 0
1.04026 -1.26272e-07 0
1.04026 -1.2929e-07 0
1.04026 -1.32312e-07 0
1.04026 -1.35344e-07 0
1.04026 -1.38389e-07 0
1.04026 -1.4144e-07 0
1.04026 -1.44492e-07 0
1.04026 -1.47539e-07 0
1.04026 -1.50579e-07 0
1.04026 -1.5361e-07 0
1.04026 -1.56631e-07 0
1.04026 -1.59639e-07 0
1.04026 -1.6263e-07 0
1.04026 -1.65601e-07 0
1.04026 -1.68549e-07 0
1.04026 -1.71471e-07 0
1.04026 -1.74364e-07 0
1.04026 -1.77225e-07 0
1.04026 -1.80052e-07 0
1.04026 -1.82841e-07 0
1.04026 -1.8559e-07 0
1.04026 -1.88297e-07 0
1.04026 -1.90957e-07 0
1.04026 -1.93569e-07 0
1.04026 -1.9613e-07 0
1.04026 -1.98637e-07 0
1.04026 -2.01088e-07 0
1.04026 -2.0348e-07 0
1.04026 -2.0581e-07 0
1.04026 -2.08075e-07 0
1.04026 -2.10273e-07 0
1.04026 -2.12402e-07 0
1.04026 -2.1446e-07 0
1.04026 -2.16446e-07 0
1.04025 -2.18356e-07 0
1.04025 -2.20194e-07 0
1.04025 -2.21968e-07 0
1.04025 -2.23726e-07 0
1.04025 -2.25673e-07 0
1.04025 -2.28731e-07 0
1.04025 -2.37085e-07 0
1.04025 -2.70241e-07 0
1.04025 -4.13481e-07 0
1.04025 -1.12251e-06 0
1.04026 -3.67531e-06 0
1.04026 -2.22183e-05 0
1.04038 -4.95954e-05 0
1.04045 -0.000555371 0
1.04045 -0.000868469 0
1 -0.000868469 0
1 -0.0166017 0
1.03309 0.0166017 0
1.06273 0.0209548 0
1.07917 0.013965 0
1.08567 0.00666014 0
1.08753 0.00245401 0
1.08788 0.000717661 0
1.08791 0.00016474 0
1.08789 2.70399e-05 0
1.08788 1.59139e-06 0
1.08788 -9.31146e-07 0
1.08788 -5.02e-07 0
1.08788 -1.77814e-07 0
1.08788 -6.56773e-08 0
1.08788 -3.64159e-08 0
1.08788 -3.05321e-08 0
1.08788 -3.02157e-08 0
1.08788 -3.11284e-08 0
1.08788 -3.23514e-08 0
1.08788 -3.37109e-08 0
1.08788 -3.51767e-08 0
1.08788 -3.67432e-08 0
1.08788 -3.84081e-08 0
1.08788 -4.01695e-08 0
1.08788 -4.20255e-08 0
1.08788 -4.39748e-08 0
1.08788 -4.60171e-08 0
1.08788 -4.81524e-08 0
1.08788 -5.03793e-08 0
1.08788 -5.26946e-08 0
1.08788 -5.50935e-08 0
1.08788 -5.75706e-08 0
1.08788 -6.01206e-08 0
1.08788 -6.27406e-08 0
1.08788 -6.54296e-08 0
1.08788 -6.81865e-08 0
1.08788 -7.10098e-08 0
1.08788 -7.3897e-08 0
1.08788 -7.68444e-08 0
1.08788 -7.98476e-08 0
1.08788 -8.29038e-08 0
1.08788 -8.60116e-08 0
1.08788 -8.91694e-08 0
1.08788 -9.23747e-08 0
1.08788 -9.56241e-08 0
1.08788 -9.89135e-08 0
1.08788 -1.02239e-07 0
1.08787 -1.05595e-07 0
1.08787 -1.08984e-07 0
1.08787 -1.12405e-07 0
1.08787 -1.15849e-07 0
1.08787 -1.19309e-07 0
1.08787 -1.22779e-07 0
1.08787 -1.26254e-07 0
1.08787 -1.29739e-07 0
1.08787 -1.33238e-07 0
1.08787 -1.36749e-07 0
1.08787 -1.40265e-07 0
1.08787 -1.43779e-07 0
1.08787 -1.47288e-07 0
1.08787 -1.50788e-07 0
1.08787 -1.54279e-07 0
1.08787 -1.57758e-07 0
1.08787 -1.6122e-07 0
1.08787 -1.64661e-07 0
1.08787 -1.68079e-07 0
1.08787 -1.71468e-07 0
1.08787 -1.74827e-07 0
1.08787 -1.78151e-07 0
1.08787 -1.81438e-07 0
1.08787 -1.84685e-07 0
1.08787 -1.87887e-07 0
1.08787 -1.91042e-07 0
1.08787 -1.94147e-07 0
1.08787 -1.97199e-07 0
1.08787 -2.00193e-07 0
1.08787 -2.03128e-07 0
1.08787 -2.06e-07 0
1.08787 -2.08807e-07 0
1.08787 -2.11544e-07 0
1.08787 -2.14209e-07 0
1.08787 -2.16799e-07 0
1.08787 -2.19312e-07 0
1.08787 -2.21744e-07 0
1.08787 -2.24094e-07 0
1.08787 -2.26359e-07 0
1.08787 -2.28537e-07 0
1.08787 -2.30631e-07 0
1.08787 -2.3265e-07 0
1.08787 -2.34642e-07 0
1.08786 -2.36801e-07 0
1.08786 -2.39993e-07 0
1.08786 -2.48105e-07 0
1.08786 -2.78898e-07 0
1.08786 -4.13507e-07 0
1.08786 -1.03446e-06 0
1.08786 -3.6752e-06 0
1.08785 -1.77278e-05 0
1.08787 -5.80548e-05 0
1.08734 -0.000378294 0
1.08734 -0.000608777 0
1 -0.000608777 0
1 -0.00770589 0
1.02669 0.00770589 0
1.05826 0.0104294 0
1.07852 0.0072135 0
1.08781 0.0035626 0
1.09108 0.00136554 0
1.09197 0.000419253 0
1.09216 0.000103075 0
1.09218 1.92586e-05 0
1.09218 2.08377e-06 0
1.09218 -2.39303e-07 0
1.09218 -2.22434e-07 0
1.09218 -8.49617e-08 0
1.09218 -2.90993e-08 0
1.09217 -1.37841e-08 0
1.09217 -1.10366e-08 0
1.09217 -1.14967e-08 0
1.09217 -1.27375e-08 0
1.09217 -1.42218e-08 0
1.09217 -1.58445e-08 0
1.09217 -1.75864e-08 0
1.09217 -1.94429e-08 0
1.09217 -2.14117e-08 0
1.09217 -2.34904e-08 0
1.09217 -2.56769e-08 0
1.09217 -2.79696e-08 0
1.09217 -3.03689e-08 0
1.09217 -3.28756e-08 0
1.09217 -3.5488e-08 0
1.09217 -3.82018e-08 0
1.09217 -4.1011e-08 0
1.09217 -4.39087e-08 0
1.09217 -4.68878e-08 0
1.09217 -4.9945e-08 0
1.09217 -5.30798e-08 0
1.09217 -5.62911e-08 0
1.09217 -5.95772e-08 0
1.09217 -6.29354e-08 0
1.09217 -6.63618e-08 0
1.09217 -6.98516e-08 0
1.09217 -7.34011e-08 0
1.09217 -7.70082e-08 0
1.09217 -8.06713e-08 0
1.09217 -8.43874e-08 0
1.09217 -8.81526e-08 0
1.09217 -9.19617e-08 0
1.09217 -9.581e-08 0
1.09217 -9.96937e-08 0
1.09217 -1.03612e-07 0
1.09217 -1.07562e-07 0
1.09217 -1.11537e-07 0
1.09217 -1.15532e-07 0
1.09217 -1.19544e-07 0
1.09217 -1.23568e-07 0
1.09217 -1.27603e-07 0
1.09217 -1.31649e-07 0
1.09217 -1.35701e-07 0
1.09217 -1.39754e-07 0
1.09217 -1.43802e-07 0
1.09217 -1.47842e-07 0
1.09217 -1.51872e-07 0
1.09217 -1.55887e-07 0
1.09217 -1.59886e-07 0
1.09217 -1.63863e-07 0
1.09217 -1.67814e-07 0
1.09217 -1.71735e-07 0
1.09217 -1.75623e-07 0
1.09217 -1.79472e-07 0
1.09217 -1.83281e-07 0
1.09217 -1.87045e-07 0
1.09217 -1.9076e-07 0
1.09217 -1.94423e-07 0
1.09217 -1.9803e-07 0
1.09217 -2.01577e-07 0
1.09217 -2.0506e-07 0
1.09217 -2.08477e-07 0
1.09217 -2.11824e-07 0
1.09217 -2.15096e-07 0
1.09216 -2.18291e-07 0
1.09216 -2.21405e-07 0
1.09216 -2.24434e-07 0
1.09216 -2.27376e-07 0
1.09216 -2.30227e-07 0
1.09216 -2.32984e-07 0
1.09216 -2.35644e-07 0
1.09216 -2.38206e-07 0
1.09216 -2.40667e-07 0
1.09216 -2.43027e-07 0
1.09216 -2.45296e-07 0
1.09216 -2.47504e-07 0
1.09216 -2.4978e-07 0
1.09216 -2.52657e-07 0
1.09216 -2.58454e-07 0
1.09216 -2.77567e-07 0
1.09216 -3.57952e-07 0
1.09216 -7.18381e-07 0
1.09215 -2.33465e-06 0
1.09213 -9.92092e-06 0
1.09207 -3.66329e-05 0
1.09149 -0.000186468 0
1.09149 -0.000306533 0
1 -0.000306533 0
1 -5.24906e-08 0
1.02312 5.24906e-08 0
1.05441 7.94237e-08 0
1.07605 -1.25764e-07 0
1.08674 -3.21471e-07 0
1.09083 -3.45371e-07 0
1.09209 -2.47597e-07 0
1.0924 -1.32858e-07 0
1.09246 -5.36702e-08 0
1.09247 -1.25666e-08 0
1.09246 4.77429e-09 0
1.09246 1.07236e-08 0
1.09246 1.19595e-08 0
1.09246 1.14568e-08 0
1.09246 1.03465e-08 0
1.09246 8.99265e-09 0
1.09246 7.49074e-09 0
1.09246 5.85841e-09 0
1.09246 4.0963e-09 0
1.09246 2.20346e-09 0
1.09246 1.80154e-10 0
1.09246 -1.97196e-09 0
1.09246 -4.25007e-09 0
1.09246 -6.65184e-09 0
1.09246 -9.17435e-09 0
1.09246 -1.18159e-08 0
1.09246 -1.45781e-08 0
1.09246 -1.74622e-08 0
1.09246 -2.04664e-08 0
1.09246 -2.35854e-08 0
1.09246 -2.68117e-08 0
1.09246 -3.01369e-08 0
1.09246 -3.35517e-08 0
1.09246 -3.70524e-08 0
1.09246 -4.06394e-08 0
1.09246 -4.43116e-08 0
1.09246 -4.8067e-08 0
1.09246 -5.19032e-08 0
1.09246 -5.58157e-08 0
1.09246 -5.97991e-08 0
1.09246 -6.38488e-08 0
1.09246 -6.79621e-08 0
1.09246 -7.21374e-08 0
1.09246 -7.63715e-08 0
1.09246 -8.06595e-08 0
1.09246 -8.49953e-08 0
1.09246 -8.93738e-08 0
1.09246 -9.37919e-08 0
1.09246 -9.82461e-08 0
1.09246 -1.02732e-07 0
1.09246 -1.07246e-07 0
1.09246 -1.11785e-07 0
1.09246 -1.16348e-07 0
1.09246 -1.2093e-07 0
1.09246 -1.25525e-07 0
1.09246 -1.30126e-07 0
1.09246 -1.34727e-07 0
1.09246 -1.39323e-07 0
1.09246 -1.43912e-07 0
1.09246 -1.4849e-07 0
1.09246 -1.53055e-07 0
1.09246 -1.57602e-07 0
1.09246 -1.62126e-07 0
1.09246 -1.66624e-07 0
1.09246 -1.7109e-07 0
1.09246 -1.75521e-07 0
1.09246 -1.79911e-07 0
1.09246 -1.84257e-07 0
1.09246 -1.88554e-07 0
1.09246 -1.928e-07 0
1.09246 -1.96988e-07 0
1.09246 -2.01116e-07 0
1.09245 -2.05178e-07 0
1.09245 -2.09171e-07 0
1.09245 -2.13091e-07 0
1.09245 -2.16934e-07 0
1.09245 -2.20695e-07 0
1.09245 -2.2437e-07 0
1.09245 -2.27957e-07 0
1.09245 -2.3145e-07 0
1.09245 -2.34846e-07 0
1.09245 -2.38142e-07 0
1.09245 -2.41333e-07 0
1.09245 -2.44417e-07 0
1.09245 -2.4739e-07 0
1.09245 -2.50249e-07 0
1.09245 -2.52993e-07 0
1.09245 -2.5562e-07 0
1.09245 -2.58134e-07 0
1.09245 -2.60545e-07 0
1.09245 -2.62879e-07 0
1.09245 -2.65182e-07 0
1.09245 -2.67491e-07 0
1.09245 -2.69662e-07 0
1.09245 -2.70292e-07 0
1.09245 -2.70121e-07 0
1.09244 -2.69647e-07 0
1.09241 -2.69922e-07 0
1.0923 -2.70333e-07 0
1.09174 -2.69865e-07 0
1.09174 -2.68529e-07 0
1 -2.68529e-07 0
1 0.00770579 0
1.02312 -0.00770579 0
1.05441 -0.0104293 0
1.07605 -0.00721378 0
1.08674 -0.00356325 0
1.09083 -0.00136621 0
1.09209 -0.000419723 0
1.0924 -0.000103323 0
1.09246 -1.93563e-05 0
1.09247 -2.10451e-06 0
1.09246 2.50573e-07 0
1.09246 2.44491e-07 0
1.09246 1.0907e-07 0
1.09246 5.20587e-08 0
1.09246 3.44788e-08 0
1.09246 2.90124e-08 0
1.09246 2.64666e-08 0
1.09246 2.44425e-08 0
1.09246 2.24026e-08 0
1.09246 2.02395e-08 0
1.09246 1.79345e-08 0
1.09246 1.54865e-08 0
1.09246 1.28988e-08 0
1.09246 1.01737e-08 0
1.09246 7.31514e-09 0
1.09246 4.32499e-09 0
1.09246 1.20054e-09 0
1.09246 -2.06075e-09 0
1.09246 -5.45702e-09 0
1.09246 -8.98171e-09 0
1.09246 -1.26257e-08 0
1.09246 -1.63792e-08 0
1.09246 -2.02298e-08 0
1.09246 -2.41736e-08 0
1.09246 -2.82125e-08 0
1.09246 -3.23455e-08 0
1.09246 -3.65703e-08 0
1.09246 -4.08845e-08 0
1.09246 -4.52832e-08 0
1.09246 -4.97604e-08 0
1.09246 -5.43103e-08 0
1.09246 -5.89295e-08 0
1.09246 -6.36168e-08 0
1.09246 -6.83689e-08 0
1.09246 -7.31799e-08 0
1.09246 -7.80425e-08 0
1.09246 -8.29509e-08 0
1.09246 -8.79032e-08 0
1.09246 -9.28934e-08 0
1.09246 -9.79152e-08 0
1.09246 -1.02967e-07 0
1.09246 -1.0805e-07 0
1.09246 -1.13164e-07 0
1.09246 -1.18304e-07 0
1.09246 -1.23459e-07 0
1.09246 -1.28614e-07 0
1.09246 -1.33764e-07 0
1.09246 -1.38904e-07 0
1.09246 -1.44033e-07 0
1.09246 -1.49149e-07 0
1.09246 -1.54248e-07 0
1.09246 -1.59326e-07 0
1.09246 -1.64377e-07 0
1.09246 -1.69396e-07 0
1.09246 -1.74377e-07 0
1.09246 -1.79316e-07 0
1.09246 -1.84208e-07 0
1.09246 -1.8905e-07 0
1.09246 -1.93837e-07 0
1.09246 -1.98563e-07 0
1.09246 -2.03224e-07 0
1.09246 -2.07816e-07 0
1.09245 -2.12334e-07 0
1.09245 -2.16773e-07 0
1.09245 -2.21129e-07 0
1.09245 -2.25396e-07 0
1.09245 -2.29572e-07 0
1.09245 -2.33651e-07 0
1.09245 -2.37628e-07 0
1.09245 -2.415e-07 0
1.09245 -2.45263e-07 0
1.09245 -2.48912e-07 0
1.09245 -2.52443e-07 0
1.09245 -2.55853e-07 0
1.09245 -2.59138e-07 0
1.09245 -2.62295e-07 0
1.09245 -2.6532e-07 0
1.09245 -2.68213e-07 0
1.09245 -2.70971e-07 0
1.09245 -2.73581e-07 0
1.09245 -2.75966e-07 0
1.09245 -2.77691e-07 0
1.09245 -2.76528e-07 0
1.09245 -2.61914e-07 0
1.09245 -1.82736e-07 0
1.09245 1.78088e-07 0
1.09244 1.79544e-06 0
1.09241 9.38108e-06 0
1.0923 3.60922e-05 0
1.09174 0.000185928 0
1.09174 0.000305996 0
1 0.000305996 0
1 0.0166016 0
1.02669 -0.0166016 0
1.05826 -0.0209548 0
1.07852 -0.0139654 0
1.08781 -0.00666079 0
1.09108 -0.00245461 0
1.09197 -0.000718055 0
1.09216 -0.000164934 0
1.09218 -2.71091e-05 0
1.09218 -1.59949e-06 0
1.09218 9.47278e-07 0
1.09218 5.25722e-07 0
1.09218 2.02398e-07 0
1.09218 8.87072e-08 0
1.09217 5.70575e-08 0
1.09217 4.84209e-08 0
1.09217 4.5089e-08 0
1.09217 4.27324e-08 0
1.09217 4.04272e-08 0
1.09217 3.79966e-08 0
1.09217 3.54111e-08 0
1.09217 3.26683e-08 0
1.09217 2.97723e-08 0
1.09217 2.67257e-08 0
1.09217 2.35332e-08 0
1.09217 2.01981e-08 0
1.09217 1.67161e-08 0
1.09217 1.30831e-08 0
1.09217 9.30066e-09 0
1.09217 5.37632e-09 0
1.09217 1.32068e-09 0
1.09217 -2.85644e-09 0
1.09217 -7.13792e-09 0
1.09217 -1.15197e-08 0
1.09217 -1.60056e-08 0
1.09217 -2.05945e-08 0
1.09217 -2.52834e-08 0
1.09217 -3.00703e-08 0
1.09217 -3.495e-08 0
1.09217 -3.99155e-08 0
1.09217 -4.49598e-08 0
1.09217 -5.00788e-08 0
1.09217 -5.52717e-08 0
1.09217 -6.05355e-08 0
1.09217 -6.58633e-08 0
1.09217 -7.12464e-08 0
1.09217 -7.66781e-08 0
1.09217 -8.2158e-08 0
1.09217 -8.76777e-08 0
1.09217 -9.32284e-08 0
1.09217 -9.88105e-08 0
1.09217 -1.04427e-07 0
1.09217 -1.10081e-07 0
1.09217 -1.15769e-07 0
1.09217 -1.21473e-07 0
1.09217 -1.27175e-07 0
1.09217 -1.32865e-07 0
1.09217 -1.38541e-07 0
1.09217 -1.44202e-07 0
1.09217 -1.49848e-07 0
1.09217 -1.55474e-07 0
1.09217 -1.61075e-07 0
1.09217 -1.66645e-07 0
1.09217 -1.72176e-07 0
1.09217 -1.77665e-07 0
1.09217 -1.83106e-07 0
1.09217 -1.88494e-07 0
1.09217 -1.93824e-07 0
1.09217 -1.99093e-07 0
1.09217 -2.04293e-07 0
1.09217 -2.09421e-07 0
1.09217 -2.1447e-07 0
1.09217 -2.19436e-07 0
1.09217 -2.24314e-07 0
1.09217 -2.29099e-07 0
1.09217 -2.33786e-07 0
1.09217 -2.38369e-07 0
1.09217 -2.42844e-07 0
1.09216 -2.47207e-07 0
1.09216 -2.51452e-07 0
1.09216 -2.55575e-07 0
1.09216 -2.59571e-07 0
1.09216 -2.63437e-07 0
1.09216 -2.67167e-07 0
1.09216 -2.70759e-07 0
1.09216 -2.74207e-07 0
1.09216 -2.7751e-07 0
1.09216 -2.80663e-07 0
1.09216 -2.8366e-07 0
1.09216 -2.86474e-07 0
1.09216 -2.88955e-07 0
1.09216 -2.90347e-07 0
1.09216 -2.86913e-07 0
1.09216 -2.61157e-07 0