# vtk DataFile Version 2.0
FlowField
ASCII
DATASET STRUCTURED_GRID
DIMENSIONS 102 1 12 
POINTS 1224 double
0 0 0
0.4 0 0
0.8 0 0
1.2 0 0
1.6 0 0
2 0 0
2.4 0 0
2.8 0 0
3.2 0 0
3.6 0 0
4 0 0
4.4 0 0
4.8 0 0
5.2 0 0
5.6 0 0
6 0 0
6.4 0 0
6.8 0 0
7.2 0 0
7.6 0 0
8 0 0
8.4 0 0
8.8 0 0
9.2 0 0
9.6 0 0
10 0 0
10.4 0 0
10.8 0 0
11.2 0 0
11.6 0 0
12 0 0
12.4 0 0
12.8 0 0
13.2 0 0
13.6 0 0
14 0 0
14.4 0 0
14.8 0 0
15.2 0 0
15.6 0 0
16 0 0
16.4 0 0
16.8 0 0
17.2 0 0
17.6 0 0
18 0 0
18.4 0 0
18.8 0 0
19.2 0 0
19.6 0 0
20 0 0
20.4 0 0
20.8 0 0
21.2 0 0
21.6 0 0
22 0 0
22.4 0 0
22.8 0 0
23.2 0 0
23.6 0 0
24 0 0
24.4 0 0
24.8 0 0
25.2 0 0
25.6 0 0
26 0 0
26.4 0 0
26.8 0 0
27.2 0 0
27.6 0 0
28 0 0
28.4 0 0
28.8 0 0
29.2 0 0
29.6 0 0
30 0 0
30.4 0 0
30.8 0 0
31.2 0 0
31.6 0 0
32 0 0
32.4 0 0
32.8 0 0
33.2 0 0
33.6 0 0
34 0 0
34.4 0 0
34.8 0 0
35.2 0 0
35.6 0 0
36 0 0
36.4 0 0
36.8 0 0
37.2 0 0
37.6 0 0
38 0 0
38.4 0 0
38.8 0 0
39.2 0 0
39.6 0 0
40 0 0
40.4 0 0
0 0.1 0
0.4 0.1 0
0.8 0.1 0
1.2 0.1 0
1.6 0.1 0
2 0.1 0
2.4 0.1 0
2.8 0.1 0
3.2 0.1 0
3.6 0.1 0
4 0.1 0
4.4 0.1 0
4.8 0.1 0
5.2 0.1 0
5.6 0.1 0
6 0.1 0
6.4 0.1 0
6.8 0.1 0
7.2 0.1 0
7.6 0.1 0
8 0.1 0
8.4 0.1 0
8.8 0.1 0
9.2 0.1 0
9.6 0.1 0
10 0.1 0
10.4 0.1 0
10.8 0.1 0
11.2 0.1 0
11.6 0.1 0
12 0.1 0
12.4 0.1 0
12.8 0.1 0
13.2 0.1 0
13.6 0.1 0
14 0.1 0
14.4 0.1 0
14.8 0.1 0
15.2 0.1 0
15.6 0.1 0
16 0.1 0
16.4 0.1 0
16.8 0.1 0
17.2 0.1 0
17.6 0.1 0
18 0.1 0
18.4 0.1 0
18.8 0.1 0
19.2 0.1 0
19.6 0.1 0
20 0.1 0
20.4 0.1 0
20.8 0.1 0
21.2 0.1 0
21.6 0.1 0
22 0.1 0
22.4 0.1 0
22.8 0.1 0
23.2 0.1 0
23.6 0.1 0
24 0.1 0
24.4 0.1 0
24.8 0.1 0
25.2 0.1 0
25.6 0.1 0
26 0.1 0
26.4 0.1 0
26.8 0.1 0
27.2 0.1 0
27.6 0.1 0
28 0.1 0
28.4 0.1 0
28.8 0.1 0
29.2 0.1 0
29.6 0.1 0
30 0.1 0
30.4 0.1 0
30.8 0.1 0
31.2 0.1 0
31.6 0.1 0
32 0.1 0
32.4 0.1 0
32.8 0.1 0
33.2 0.1 0
33.6 0.1 0
34 0.1 0
34.4 0.1 0
34.8 0.1 0
35.2 0.1 0
35.6 0.1 0
36 0.1 0
36.4 0.1 0
36.8 0.1 0
37.2 0.1 0
37.6 0.1 0
38 0.1 0
38.4 0.1 0
38.8 0.1 0
39.2 0.1 0
39.6 0.1 0
40 0.1 0
40.4 0.1 0
0 0.2 0
0.4 0.2 0
0.8 0.2 0
1.2 0.2 0
1.6 0.2 0
2 0.2 0
2.4 0.2 0
2.8 0.2 0
3.2 0.2 0
3.6 0.2 0
4 0.2 0
4.4 0.2 0
4.8 0.2 0
5.2 0.2 0
5.6 0.2 0
6 0.2 0
6.4 0.2 0
6.8 0.2 0
7.2 0.2 0
7.6 0.2 0
8 0.2 0
8.4 0.2 0
8.8 0.2 0
9.2 0.2 0
9.6 0.2 0
10 0.2 0
10.4 0.2 0
10.8 0.2 0
11.2 0.2 0
11.6 0.2 0
12 0.2 0
12.4 0.2 0
12.8 0.2 0
13.2 0.2 0
13.6 0.2 0
14 0.2 0
14.4 0.2 0
14.8 0.2 0
15.2 0.2 0
15.6 0.2 0
16 0.2 0
16.4 0.2 0
16.8 0.2 0
17.2 0.2 0
17.6 0.2 0
18 0.2 0
18.4 0.2 0
18.8 0.2 0
19.2 0.2 0
19.6 0.2 0
20 0.2 0
20.4 0.2 0
20.8 0.2 0
21.2 0.2 0
21.6 0.2 0
22 0.2 0
22.4 0.2 0
22.8 0.2 0
23.2 0.2 0
23.6 0.2 0
24 0.2 0
24.4 0.2 0
24.8 0.2 0
25.2 0.2 0
25.6 0.2 0
26 0.2 0
26.4 0.2 0
26.8 0.2 0
27.2 0.2 0
27.6 0.2 0
28 0.2 0
28.4 0.2 0
28.8 0.2 0
29.2 0.2 0
29.6 0.2 0
30 0.2 0
30.4 0.2 0
30.8 0.2 0
31.2 0.2 0
31.6 0.2 0
32 0.2 0
32.4 0.2 0
32.8 0.2 0
33.2 0.2 0
33.6 0.2 0
34 0.2 0
34.4 0.2 0
34.8 0.2 0
35.2 0.2 0
35.6 0.2 0
36 0.2 0
36.4 0.2 0
36.8 0.2 0
37.2 0.2 0
37.6 0.2 0
38 0.2 0
38.4 0.2 0
38.8 0.2 0
39.2 0.2 0
39.6 0.2 0
40 0.2 0
40.4 0.2 0
0 0.3 0
0.4 0.3 0
0.8 0.3 0
1.2 0.3 0
1.6 0.3 0
2 0.3 0
2.4 0.3 0
2.8 0.3 0
3.2 0.3 0
3.6 0.3 0
4 0.3 0
4.4 0.3 0
4.8 0.3 0
5.2 0.3 0
5.6 0.3 0
6 0.3 0
6.4 0.3 0
6.8 0.3 0
7.2 0.3 0
7.6 0.3 0
8 0.3 0
8.4 0.3 0
8.8 0.3 0
9.2 0.3 0
9.6 0.3 0
10 0.3 0
10.4 0.3 0
10.8 0.3 0
11.2 0.3 0
11.6 0.3 0
12 0.3 0
12.4 0.3 0
12.8 0.3 0
13.2 0.3 0
13.6 0.3 0
14 0.3 0
14.4 0.3 0
14.8 0.3 0
15.2 0.3 0
15.6 0.3 0
16 0.3 0
16.4 0.3 0
16.8 0.3 0
17.2 0.3 0
17.6 0.3 0
18 0.3 0
18.4 0.3 0
18.8 0.3 0
19.2 0.3 0
19.6 0.3 0
20 0.3 0
20.4 0.3 0
20.8 0.3 0
21.2 0.3 0
21.6 0.3 0
22 0.3 0
22.4 0.3 0
22.8 0.3 0
23.2 0.3 0
23.6 0.3 0
24 0.3 0
24.4 0.3 0
24.8 0.3 0
25.2 0.3 0
25.6 0.3 0
26 0.3 0
26.4 0.3 0
26.8 0.3 0
27.2 0.3 0
27.6 0.3 0
28 0.3 0
28.4 0.3 0
28.8 0.3 0
29.2 0.3 0
29.6 0.3 0
30 0.3 0
30.4 0.3 0
30.8 0.3 0
31.2 0.3 0
31.6 0.3 0
32 0.3 0
32.4 0.3 0
32.8 0.3 0
33.2 0.3 0
33.6 0.3 0
34 0.3 0
34.4 0.3 0
34.8 0.3 0
35.2 0.3 0
35.6 0.3 0
36 0.3 0
36.4 0.3 0
36.8 0.3 0
37.2 0.3 0
37.6 0.3 0
38 0.3 0
38.4 0.3 0
38.8 0.3 0
39.2 0.3 0
39.6 0.3 0
40 0.3 0
40.4 0.3 0
0 0.4 0
0.4 0.4 0
0.8 0.4 0
1.2 0.4 0
1.6 0.4 0
2 0.4 0
2.4 0.4 0
2.8 0.4 0
3.2 0.4 0
3.6 0.4 0
4 0.4 0
4.4 0.4 0
4.8 0.4 0
5.2 0.4 0
5.6 0.4 0
6 0.4 0
6.4 0.4 0
6.8 0.4 0
7.2 0.4 0
7.6 0.4 0
8 0.4 0
8.4 0.4 0
8.8 0.4 0
9.2 0.4 0
9.6 0.4 0
10 0.4 0
10.4 0.4 0
10.8 0.4 0
11.2 0.4 0
11.6 0.4 0
12 0.4 0
12.4 0.4 0
12.8 0.4 0
13.2 0.4 0
13.6 0.4 0
14 0.4 0
14.4 0.4 0
14.8 0.4 0
15.2 0.4 0
15.6 0.4 0
16 0.4 0
16.4 0.4 0
16.8 0.4 0
17.2 0.4 0
17.6 0.4 0
18 0.4 0
18.4 0.4 0
18.8 0.4 0
19.2 0.4 0
19.6 0.4 0
20 0.4 0
20.4 0.4 0
20.8 0.4 0
21.2 0.4 0
21.6 0.4 0
22 0.4 0
22.4 0.4 0
22.8 0.4 0
23.2 0.4 0
23.6 0.4 0
24 0.4 0
24.4 0.4 0
24.8 0.4 0
25.2 0.4 0
25.6 0.4 0
26 0.4 0
26.4 0.4 0
26.8 0.4 0
27.2 0.4 0
27.6 0.4 0
28 0.4 0
28.4 0.4 0
28.8 0.4 0
29.2 0.4 0
29.6 0.4 0
30 0.4 0
30.4 0.4 0
30.8 0.4 0
31.2 0.4 0
31.6 0.4 0
32 0.4 0
32.4 0.4 0
32.8 0.4 0
33.2 0.4 0
33.6 0.4 0
34 0.4 0
34.4 0.4 0
34.8 0.4 0
35.2 0.4 0
35.6 0.4 0
36 0.4 0
36.4 0.4 0
36.8 0.4 0
37.2 0.4 0
37.6 0.4 0
38 0.4 0
38.4 0.4 0
38.8 0.4 0
39.2 0.4 0
39.6 0.4 0
40 0.4 0
40.4 0.4 0
0 0.5 0
0.4 0.5 0
0.8 0.5 0
1.2 0.5 0
1.6 0.5 0
2 0.5 0
2.4 0.5 0
2.8 0.5 0
3.2 0.5 0
3.6 0.5 0
4 0.5 0
4.4 0.5 0
4.8 0.5 0
5.2 0.5 0
5.6 0.5 0
6 0.5 0
6.4 0.5 0
6.8 0.5 0
7.2 0.5 0
7.6 0.5 0
8 0.5 0
8.4 0.5 0
8.8 0.5 0
9.2 0.5 0
9.6 0.5 0
10 0.5 0
10.4 0.5 0
10.8 0.5 0
11.2 0.5 0
11.6 0.5 0
12 0.5 0
12.4 0.5 0
12.8 0.5 0
13.2 0.5 0
13.6 0.5 0
14 0.5 0
14.4 0.5 0
14.8 0.5 0
15.2 0.5 0
15.6 0.5 0
16 0.5 0
16.4 0.5 0
16.8 0.5 0
17.2 0.5 0
17.6 0.5 0
18 0.5 0
18.4 0.5 0
18.8 0.5 0
19.2 0.5 0
19.6 0.5 0
20 0.5 0
20.4 0.5 0
20.8 0.5 0
21.2 0.5 0
21.6 0.5 0
22 0.5 0
22.4 0.5 0
22.8 0.5 0
23.2 0.5 0
23.6 0.5 0
24 0.5 0
24.4 0.5 0
24.8 0.5 0
25.2 0.5 0
25.6 0.5 0
26 0.5 0
26.4 0.5 0
26.8 0.5 0
27.2 0.5 0
27.6 0.5 0
28 0.5 0
28.4 0.5 0
28.8 0.5 0
29.2 0.5 0
29.6 0.5 0
30 0.5 0
30.4 0.5 0
30.8 0.5 0
31.2 0.5 0
31.6 0.5 0
32 0.5 0
32.4 0.5 0
32.8 0.5 0
33.2 0.5 0
33.6 0.5 0
34 0.5 0
34.4 0.5 0
34.8 0.5 0
35.2 0.5 0
35.6 0.5 0
36 0.5 0
36.4 0.5 0
36.8 0.5 0
37.2 0.5 0
37.6 0.5 0
38 0.5 0
38.4 0.5 0
38.8 0.5 0
39.2 0.5 0
39.6 0.5 0
40 0.5 0
40.4 0.5 0
0 0.6 0
0.4 0.6 0
0.8 0.6 0
1.2 0.6 0
1.6 0.6 0
2 0.6 0
2.4 0.6 0
2.8 0.6 0
3.2 0.6 0
3.6 0.6 0
4 0.6 0
4.4 0.6 0
4.8 0.6 0
5.2 0.6 0
5.6 0.6 0
6 0.6 0
6.4 0.6 0
6.8 0.6 0
7.2 0.6 0
7.6 0.6 0
8 0.6 0
8.4 0.6 0
8.8 0.6 0
9.2 0.6 0
9.6 0.6 0
10 0.6 0
10.4 0.6 0
10.8 0.6 0
11.2 0.6 0
11.6 0.6 0
12 0.6 0
12.4 0.6 0
12.8 0.6 0
13.2 0.6 0
13.6 0.6 0
14 0.6 0
14.4 0.6 0
14.8 0.6 0
15.2 0.6 0
15.6 0.6 0
16 0.6 0
16.4 0.6 0
16.8 0.6 0
17.2 0.6 0
17.6 0.6 0
18 0.6 0
18.4 0.6 0
18.8 0.6 0
19.2 0.6 0
19.6 0.6 0
20 0.6 0
20.4 0.6 0
20.8 0.6 0
21.2 0.6 0
21.6 0.6 0
22 0.6 0
22.4 0.6 0
22.8 0.6 0
23.2 0.6 0
23.6 0.6 0
24 0.6 0
24.4 0.6 0
24.8 0.6 0
25.2 0.6 0
25.6 0.6 0
26 0.6 0
26.4 0.6 0
26.8 0.6 0
27.2 0.6 0
27.6 0.6 0
28 0.6 0
28.4 0.6 0
28.8 0.6 0
29.2 0.6 0
29.6 0.6 0
30 0.6 0
30.4 0.6 0
30.8 0.6 0
31.2 0.6 0
31.6 0.6 0
32 0.6 0
32.4 0.6 0
32.8 0.6 0
33.2 0.6 0
33.6 0.6 0
34 0.6 0
34.4 0.6 0
34.8 0.6 0
35.2 0.6 0
35.6 0.6 0
36 0.6 0
36.4 0.6 0
36.8 0.6 0
37.2 0.6 0
37.6 0.6 0
38 0.6 0
38.4 0.6 0
38.8 0.6 0
39.2 0.6 0
39.6 0.6 0
40 0.6 0
40.4 0.6 0
0 0.7 0
0.4 0.7 0
0.8 0.7 0
1.2 0.7 0
1.6 0.7 0
2 0.7 0
2.4 0.7 0
2.8 0.7 0
3.2 0.7 0
3.6 0.7 0
4 0.7 0
4.4 0.7 0
4.8 0.7 0
5.2 0.7 0
5.6 0.7 0
6 0.7 0
6.4 0.7 0
6.8 0.7 0
7.2 0.7 0
7.6 0.7 0
8 0.7 0
8.4 0.7 0
8.8 0.7 0
9.2 0.7 0
9.6 0.7 0
10 0.7 0
10.4 0.7 0
10.8 0.7 0
11.2 0.7 0
11.6 0.7 0
12 0.7 0
12.4 0.7 0
12.8 0.7 0
13.2 0.7 0
13.6 0.7 0
14 0.7 0
14.4 0.7 0
14.8 0.7 0
15.2 0.7 0
15.6 0.7 0
16 0.7 0
16.4 0.7 0
16.8 0.7 0
17.2 0.7 0
17.6 0.7 0
18 0.7 0
18.4 0.7 0
18.8 0.7 0
19.2 0.7 0
19.6 0.7 0
20 0.7 0
20.4 0.7 0
20.8 0.7 0
21.2 0.7 0
21.6 0.7 0
22 0.7 0
22.4 0.7 0
22.8 0.7 0
23.2 0.7 0
23.6 0.7 0
24 0.7 0
24.4 0.7 0
24.8 0.7 0
25.2 0.7 0
25.6 0.7 0
26 0.7 0
26.4 0.7 0
26.8 0.7 0
27.2 0.7 0
27.6 0.7 0
28 0.7 0
28.4 0.7 0
28.8 0.7 0
29.2 0.7 0
29.6 0.7 0
30 0.7 0
30.4 0.7 0
30.8 0.7 0
31.2 0.7 0
31.6 0.7 0
32 0.7 0
32.4 0.7 0
32.8 0.7 0
33.2 0.7 0
33.6 0.7 0
34 0.7 0
34.4 0.7 0
34.8 0.7 0
35.2 0.7 0
35.6 0.7 0
36 0.7 0
36.4 0.7 0
36.8 0.7 0
37.2 0.7 0
37.6 0.7 0
38 0.7 0
38.4 0.7 0
38.8 0.7 0
39.2 0.7 0
39.6 0.7 0
40 0.7 0
40.4 0.7 0
0 0.8 0
0.4 0.8 0
0.8 0.8 0
1.2 0.8 0
1.6 0.8 0
2 0.8 0
2.4 0.8 0
2.8 0.8 0
3.2 0.8 0
3.6 0.8 0
4 0.8 0
4.4 0.8 0
4.8 0.8 0
5.2 0.8 0
5.6 0.8 0
6 0.8 0
6.4 0.8 0
6.8 0.8 0
7.2 0.8 0
7.6 0.8 0
8 0.8 0
8.4 0.8 0
8.8 0.8 0
9.2 0.8 0
9.6 0.8 0
10 0.8 0
10.4 0.8 0
10.8 0.8 0
11.2 0.8 0
11.6 0.8 0
12 0.8 0
12.4 0.8 0
12.8 0.8 0
13.2 0.8 0
13.6 0.8 0
14 0.8 0
14.4 0.8 0
14.8 0.8 0
15.2 0.8 0
15.6 0.8 0
16 0.8 0
16.4 0.8 0
16.8 0.8 0
17.2 0.8 0
17.6 0.8 0
18 0.8 0
18.4 0.8 0
18.8 0.8 0
19.2 0.8 0
19.6 0.8 0
20 0.8 0
20.4 0.8 0
20.8 0.8 0
21.2 0.8 0
21.6 0.8 0
22 0.8 0
22.4 0.8 0
22.8 0.8 0
23.2 0.8 0
23.6 0.8 0
24 0.8 0
24.4 0.8 0
24.8 0.8 0
25.2 0.8 0
25.6 0.8 0
26 0.8 0
26.4 0.8 0
26.8 0.8 0
27.2 0.8 0
27.6 0.8 0
28 0.8 0
28.4 0.8 0
28.8 0.8 0
29.2 0.8 0
29.6 0.8 0
30 0.8 0
30.4 0.8 0
30.8 0.8 0
31.2 0.8 0
31.6 0.8 0
32 0.8 0
32.4 0.8 0
32.8 0.8 0
33.2 0.8 0
33.6 0.8 0
34 0.8 0
34.4 0.8 0
34.8 0.8 0
35.2 0.8 0
35.6 0.8 0
36 0.8 0
36.4 0.8 0
36.8 0.8 0
37.2 0.8 0
37.6 0.8 0
38 0.8 0
38.4 0.8 0
38.8 0.8 0
39.2 0.8 0
39.6 0.8 0
40 0.8 0
40.4 0.8 0
0 0.9 0
0.4 0.9 0
0.8 0.9 0
1.2 0.9 0
1.6 0.9 0
2 0.9 0
2.4 0.9 0
2.8 0.9 0
3.2 0.9 0
3.6 0.9 0
4 0.9 0
4.4 0.9 0
4.8 0.9 0
5.2 0.9 0
5.6 0.9 0
6 0.9 0
6.4 0.9 0
6.8 0.9 0
7.2 0.9 0
7.6 0.9 0
8 0.9 0
8.4 0.9 0
8.8 0.9 0
9.2 0.9 0
9.6 0.9 0
10 0.9 0
10.4 0.9 0
10.8 0.9 0
11.2 0.9 0
11.6 0.9 0
12 0.9 0
12.4 0.9 0
12.8 0.9 0
13.2 0.9 0
13.6 0.9 0
14 0.9 0
14.4 0.9 0
14.8 0.9 0
15.2 0.9 0
15.6 0.9 0
16 0.9 0
16.4 0.9 0
16.8 0.9 0
17.2 0.9 0
17.6 0.9 0
18 0.9 0
18.4 0.9 0
18.8 0.9 0
19.2 0.9 0
19.6 0.9 0
20 0.9 0
20.4 0.9 0
20.8 0.9 0
21.2 0.9 0
21.6 0.9 0
22 0.9 0
22.4 0.9 0
22.8 0.9 0
23.2 0.9 0
23.6 0.9 0
24 0.9 0
24.4 0.9 0
24.8 0.9 0
25.2 0.9 0
25.6 0.9 0
26 0.9 0
26.4 0.9 0
26.8 0.9 0
27.2 0.9 0
27.6 0.9 0
28 0.9 0
28.4 0.9 0
28.8 0.9 0
29.2 0.9 0
29.6 0.9 0
30 0.9 0
30.4 0.9 0
30.8 0.9 0
31.2 0.9 0
31.6 0.9 0
32 0.9 0
32.4 0.9 0
32.8 0.9 0
33.2 0.9 0
33.6 0.9 0
34 0.9 0
34.4 0.9 0
34.8 0.9 0
35.2 0.9 0
35.6 0.9 0
36 0.9 0
36.4 0.9 0
36.8 0.9 0
37.2 0.9 0
37.6 0.9 0
38 0.9 0
38.4 0.9 0
38.8 0.9 0
39.2 0.9 0
39.6 0.9 0
40 0.9 0
40.4 0.9 0
0 1 0
0.4 1 0
0.8 1 0
1.2 1 0
1.6 1 0
2 1 0
2.4 1 0
2.8 1 0
3.2 1 0
3.6 1 0
4 1 0
4.4 1 0
4.8 1 0
5.2 1 0
5.6 1 0
6 1 0
6.4 1 0
6.8 1 0
7.2 1 0
7.6 1 0
8 1 0
8.4 1 0
8.8 1 0
9.2 1 0
9.6 1 0
10 1 0
10.4 1 0
10.8 1 0
11.2 1 0
11.6 1 0
12 1 0
12.4 1 0
12.8 1 0
13.2 1 0
13.6 1 0
14 1 0
14.4 1 0
14.8 1 0
15.2 1 0
15.6 1 0
16 1 0
16.4 1 0
16.8 1 0
17.2 1 0
17.6 1 0
18 1 0
18.4 1 0
18.8 1 0
19.2 1 0
19.6 1 0
20 1 0
20.4 1 0
20.8 1 0
21.2 1 0
21.6 1 0
22 1 0
22.4 1 0
22.8 1 0
23.2 1 0
23.6 1 0
24 1 0
24.4 1 0
24.8 1 0
25.2 1 0
25.6 1 0
26 1 0
26.4 1 0
26.8 1 0
27.2 1 0
27.6 1 0
28 1 0
28.4 1 0
28.8 1 0
29.2 1 0
29.6 1 0
30 1 0
30.4 1 0
30.8 1 0
31.2 1 0
31.6 1 0
32 1 0
32.4 1 0
32.8 1 0
33.2 1 0
33.6 1 0
34 1 0
34.4 1 0
34.8 1 0
35.2 1 0
35.6 1 0
36 1 0
36.4 1 0
36.8 1 0
37.2 1 0
37.6 1 0
38 1 0
38.4 1 0
38.8 1 0
39.2 1 0
39.6 1 0
40 1 0
40.4 1 0
0 1.1 0
0.4 1.1 0
0.8 1.1 0
1.2 1.1 0
1.6 1.1 0
2 1.1 0
2.4 1.1 0
2.8 1.1 0
3.2 1.1 0
3.6 1.1 0
4 1.1 0
4.4 1.1 0
4.8 1.1 0
5.2 1.1 0
5.6 1.1 0
6 1.1 0
6.4 1.1 0
6.8 1.1 0
7.2 1.1 0
7.6 1.1 0
8 1.1 0
8.4 1.1 0
8.8 1.1 0
9.2 1.1 0
9.6 1.1 0
10 1.1 0
10.4 1.1 0
10.8 1.1 0
11.2 1.1 0
11.6 1.1 0
12 1.1 0
12.4 1.1 0
12.8 1.1 0
13.2 1.1 0
13.6 1.1 0
14 1.1 0
14.4 1.1 0
14.8 1.1 0
15.2 1.1 0
15.6 1.1 0
16 1.1 0
16.4 1.1 0
16.8 1.1 0
17.2 1.1 0
17.6 1.1 0
18 1.1 0
18.4 1.1 0
18.8 1.1 0
19.2 1.1 0
19.6 1.1 0
20 1.1 0
20.4 1.1 0
20.8 1.1 0
21.2 1.1 0
21.6 1.1 0
22 1.1 0
22.4 1.1 0
22.8 1.1 0
23.2 1.1 0
23.6 1.1 0
24 1.1 0
24.4 1.1 0
24.8 1.1 0
25.2 1.1 0
25.6 1.1 0
26 1.1 0
26.4 1.1 0
26.8 1.1 0
27.2 1.1 0
27.6 1.1 0
28 1.1 0
28.4 1.1 0
28.8 1.1 0
29.2 1.1 0
29.6 1.1 0
30 1.1 0
30.4 1.1 0
30.8 1.1 0
31.2 1.1 0
31.6 1.1 0
32 1.1 0
32.4 1.1 0
32.8 1.1 0
33.2 1.1 0
33.6 1.1 0
34 1.1 0
34.4 1.1 0
34.8 1.1 0
35.2 1.1 0
35.6 1.1 0
36 1.1 0
36.4 1.1 0
36.8 1.1 0
37.2 1.1 0
37.6 1.1 0
38 1.1 0
38.4 1.1 0
38.8 1.1 0
39.2 1.1 0
39.6 1.1 0
40 1.1 0
40.4 1.1 0

POINT_DATA 1224

SCALARS v double
LOOKUP_TABLE default
0
0
0
0
0
0
0
0
0
0
0
0
0
0
0
0
0
0
0
0
0
0
0
0
0
0
0
0
0
0
0
0
0
0
0
0
0
0
0
0
0
0
0
0
0
0
0
0
0
0
0
0
0
0
0
0
0
0
0
0
0
0
0
0
0
0
0
0
0
0
0
0
0
0
0
0
0
0
0
0
0
0
0
0
0
0
0
0
0
0
0
0
0
0
0
0
0
0
0
0
0
0
0
0.0787075
0.0554406
0.0327103
0.0178113
0.00965831
0.00557769
0.00354705
0.0024703
0.00183781
0.0014258
0.00113504
0.000918502
0.000751451
0.000619595
0.000513875
0.00042808
0.000357818
0.000299888
0.000251857
0.000211859
0.000178444
0.00015045
0.000126942
0.000107175
9.05306e-05
7.64996e-05
6.4663e-05
5.46691e-05
4.62298e-05
3.91e-05
3.30715e-05
2.79766e-05
2.36696e-05
2.00249e-05
1.69414e-05
1.43348e-05
1.21297e-05
1.02635e-05
8.68503e-06
7.34926e-06
6.21855e-06
5.26193e-06
4.453e-06
3.76861e-06
3.18866e-06
2.69808e-06
2.28382e-06
1.93251e-06
1.63482e-06
1.38376e-06
1.17122e-06
9.90961e-07
8.38493e-07
7.09533e-07
6.00669e-07
5.08213e-07
4.29886e-07
3.64054e-07
3.08002e-07
2.60562e-07
2.20574e-07
1.86609e-07
1.57992e-07
1.33698e-07
1.13064e-07
9.57111e-08
8.10643e-08
6.85523e-08
5.7978e-08
4.91269e-08
4.15566e-08
3.51544e-08
2.97658e-08
2.51913e-08
2.13093e-08
1.80417e-08
1.52681e-08
1.29237e-08
1.09331e-08
9.25017e-09
7.83023e-09
6.62401e-09
5.59941e-09
4.73124e-09
4.00071e-09
3.37536e-09
2.84489e-09
2.3963e-09
2.01294e-09
1.68954e-09
1.41208e-09
1.17749e-09
9.77447e-10
8.08576e-10
6.65303e-10
5.43673e-10
4.47149e-10
3.41608e-10
3.28991e-10
-1.84349e-11
-1.84349e-11
0
0.0668415
0.0608389
0.042293
0.0271276
0.0175005
0.0118521
0.00849203
0.00637031
0.00493628
0.00391075
0.00314663
0.00256044
0.00210109
0.00173539
0.00144064
0.00120071
0.00100387
0.000841383
0.000706569
0.000594271
0.000500439
0.000421834
0.000355847
0.000300369
0.000253666
0.000214309
0.000181116
0.000153102
0.000129449
0.000109467
9.25802e-05
7.83095e-05
6.62447e-05
5.60406e-05
4.74111e-05
4.01133e-05
3.39394e-05
2.87167e-05
2.4299e-05
2.05609e-05
1.73977e-05
1.47215e-05
1.24576e-05
1.05417e-05
8.92006e-06
7.54849e-06
6.38817e-06
5.40534e-06
4.57388e-06
3.87095e-06
3.27574e-06
2.77189e-06
2.34562e-06
1.98501e-06
1.67993e-06
1.42139e-06
1.20285e-06
1.01811e-06
8.61408e-07
7.28965e-07
6.16907e-07
5.22025e-07
4.41837e-07
3.73852e-07
3.16329e-07
2.67754e-07
2.2661e-07
1.917e-07
1.6224e-07
1.37338e-07
1.16191e-07
9.8329e-08
8.32213e-08
7.0421e-08
5.95876e-08
5.04335e-08
4.26745e-08
3.61144e-08
3.05511e-08
2.58518e-08
2.18698e-08
1.84973e-08
1.56359e-08
1.32158e-08
1.11639e-08
9.41959e-09
7.9413e-09
6.68637e-09
5.61887e-09
4.71339e-09
3.94184e-09
3.28803e-09
2.73234e-09
2.26163e-09
1.86381e-09
1.52642e-09
1.2535e-09
9.79581e-10
9.04628e-10
-2.71021e-11
-2.71021e-11
0
0.0434614
0.0450424
0.0342517
0.0238914
0.0167607
0.0122647
0.00937327
0.00739329
0.00595018
0.00484986
0.00398639
0.00329627
0.00273788
0.00228213
0.00190763
0.0015982
0.00134144
0.00112763
0.00094905
0.000799544
0.000674139
0.000568777
0.000480141
0.000405495
0.000342576
0.000289507
0.000244716
0.000206896
0.000174951
0.000147955
0.000125139
0.000105853
8.95451e-05
7.57533e-05
6.40897e-05
5.42243e-05
4.58782e-05
3.88184e-05
3.28462e-05
2.7793e-05
2.35174e-05
1.99e-05
1.68393e-05
1.42492e-05
1.20575e-05
1.02036e-05
8.63463e-06
7.30629e-06
6.18281e-06
5.23232e-06
4.42763e-06
3.7467e-06
3.17059e-06
2.68318e-06
2.2706e-06
1.92125e-06
1.62598e-06
1.37605e-06
1.16433e-06
9.85362e-07
8.33835e-07
7.05634e-07
5.9718e-07
5.05293e-07
4.2761e-07
3.61922e-07
3.06252e-07
2.59117e-07
2.19318e-07
1.85607e-07
1.57044e-07
1.32909e-07
1.12476e-07
9.51739e-08
8.05388e-08
6.8157e-08
5.7671e-08
4.88001e-08
4.12833e-08
3.49308e-08
2.95455e-08
2.49865e-08
2.11199e-08
1.78492e-08
1.50729e-08
1.27174e-08
1.072e-08
9.02278e-09
7.58131e-09
6.35672e-09
5.31566e-09
4.43215e-09
3.68182e-09
3.0459e-09
2.50847e-09
2.05375e-09
1.68254e-09
1.32505e-09
1.20247e-09
-2.90221e-11
-2.90221e-11
0
0.0210569
0.0230874
0.0183628
0.0133673
0.00978213
0.00744485
0.00588653
0.00477599
0.00393342
0.00326679
0.00272645
0.0022825
0.00191488
0.00160902
0.00135366
0.00113994
0.000960726
0.000810216
0.000683654
0.000577122
0.000487376
0.000411715
0.000347895
0.000294033
0.000248557
0.000210149
0.0001777
0.000150279
0.000127103
0.000107508
9.09412e-05
7.69328e-05
6.50846e-05
5.50636e-05
4.6588e-05
3.94177e-05
3.33514e-05
2.82197e-05
2.38782e-05
2.02049e-05
1.70969e-05
1.44672e-05
1.22421e-05
1.03589e-05
8.7658e-06
7.41812e-06
6.27719e-06
5.3116e-06
4.49502e-06
3.80388e-06
3.2188e-06
2.72382e-06
2.30504e-06
1.95071e-06
1.65066e-06
1.39675e-06
1.18215e-06
1.00034e-06
8.46467e-07
7.16377e-07
6.06195e-07
5.13018e-07
4.34137e-07
3.67339e-07
3.10901e-07
2.63127e-07
2.22628e-07
1.88389e-07
1.5946e-07
1.34929e-07
1.14173e-07
9.6628e-08
8.17676e-08
6.91872e-08
5.85496e-08
4.95422e-08
4.19186e-08
3.54639e-08
2.99993e-08
2.53781e-08
2.14598e-08
1.81418e-08
1.53287e-08
1.29487e-08
1.09271e-08
9.21293e-09
7.75835e-09
6.52182e-09
5.47255e-09
4.58022e-09
3.82242e-09
3.17851e-09
2.632e-09
2.16875e-09
1.7778e-09
1.44775e-09
1.17834e-09
9.27198e-10
8.35892e-10
-2.07861e-11
-2.07861e-11
0
2.41183e-08
-1.46719e-08
-1.04608e-08
4.4484e-09
-1.13915e-08
-7.59538e-09
1.86019e-08
6.99921e-09
-1.50499e-08
-1.756e-09
9.79337e-09
-8.24147e-10
-2.93026e-09
3.73615e-09
6.16719e-10
-2.59717e-09
-9.88746e-11
4.38833e-10
-4.71411e-11
8.29558e-10
2.40218e-10
-5.61152e-10
2.78645e-10
4.79486e-10
2.76426e-10
9.72614e-11
-1.68531e-10
5.6198e-10
5.7134e-10
-1.81139e-10
4.03309e-10
4.99013e-10
-2.02664e-10
1.3071e-11
5.84535e-10
3.59431e-10
1.60821e-10
2.21056e-10
1.10894e-10
7.3101e-11
1.84761e-10
3.28887e-10
1.7753e-10
-6.53986e-11
1.3944e-10
2.80322e-10
-5.23128e-12
2.88427e-12
2.08131e-10
1.13303e-10
7.05503e-12
2.4147e-11
1.00391e-10
1.16569e-10
-7.16819e-12
3.57058e-11
1.11287e-10
1.48016e-11
3.17899e-11
6.02536e-11
3.46785e-11
5.96931e-11
2.48429e-11
1.19837e-11
5.84077e-11
4.37869e-11
6.95657e-12
2.63233e-11
3.61536e-11
1.4132e-11
1.46576e-11
1.5508e-11
7.52682e-12
7.611e-13
-2.05563e-13
-8.27272e-12
-1.30387e-11
-2.30238e-11
-2.72851e-11
-3.36728e-11
-4.17274e-11
-5.05964e-11
-5.7947e-11
-6.4121e-11
-7.23359e-11
-7.95683e-11
-8.66986e-11
-9.38172e-11
-9.93215e-11
-1.05479e-10
-1.10163e-10
-1.15073e-10
-1.18605e-10
-1.215e-10
-1.22787e-10
-1.2201e-10
-1.18474e-10
-1.05557e-10
-8.98994e-11
-3.73408e-12
-3.73408e-12
0
-0.0210569
-0.0230874
-0.0183628
-0.0133673
-0.00978213
-0.00744486
-0.00588651
-0.00477598
-0.00393344
-0.0032668
-0.00272644
-0.00228249
-0.00191489
-0.00160902
-0.00135366
-0.00113994
-0.000960726
-0.000810215
-0.000683653
-0.000577121
-0.000487375
-0.000411716
-0.000347895
-0.000294033
-0.000248557
-0.000210149
-0.0001777
-0.000150279
-0.000127102
-0.000107508
-9.09408e-05
-7.6932e-05
-6.50846e-05
-5.50635e-05
-4.65871e-05
-3.9417e-05
-3.33511e-05
-2.82194e-05
-2.3878e-05
-2.02047e-05
-1.70965e-05
-1.44667e-05
-1.22418e-05
-1.0359e-05
-8.76562e-06
-7.41766e-06
-6.27708e-06
-5.31161e-06
-4.49473e-06
-3.80365e-06
-3.21876e-06
-2.72377e-06
-2.30488e-06
-1.95051e-06
-1.65062e-06
-1.39672e-06
-1.18197e-06
-1.00027e-06
-8.46418e-07
-7.16269e-07
-6.06127e-07
-5.12916e-07
-4.34074e-07
-3.6731e-07
-3.10806e-07
-2.63042e-07
-2.22598e-07
-1.88347e-07
-1.59395e-07
-1.34892e-07
-1.14146e-07
-9.65973e-08
-8.17491e-08
-6.91819e-08
-5.8548e-08
-4.95528e-08
-4.19398e-08
-3.55009e-08
-3.00467e-08
-2.54363e-08
-2.15331e-08
-1.82303e-08
-1.54316e-08
-1.3063e-08
-1.10567e-08
-9.35614e-09
-7.91431e-09
-6.69077e-09
-5.65241e-09
-4.7712e-09
-4.02281e-09
-3.38742e-09
-2.84793e-09
-2.38996e-09
-2.00162e-09
-1.67034e-09
-1.3946e-09
-1.11955e-09
-1.00057e-09
1.11618e-11
1.11618e-11
0
-0.0434614
-0.0450424
-0.0342517
-0.0238913
-0.0167606
-0.0122647
-0.00937329
-0.00739328
-0.00595018
-0.00484987
-0.00398639
-0.00329626
-0.00273789
-0.00228214
-0.00190762
-0.0015982
-0.00134145
-0.00112763
-0.000949049
-0.000799546
-0.000674139
-0.000568776
-0.00048014
-0.000405495
-0.000342576
-0.000289506
-0.000244716
-0.000206896
-0.00017495
-0.000147955
-0.00012514
-0.000105852
-8.95442e-05
-7.5753e-05
-6.40895e-05
-5.42238e-05
-4.58782e-05
-3.88184e-05
-3.28458e-05
-2.77926e-05
-2.35172e-05
-1.98998e-05
-1.68391e-05
-1.4249e-05
-1.20575e-05
-1.02034e-05
-8.63425e-06
-7.30631e-06
-6.18283e-06
-5.2321e-06
-4.42751e-06
-3.74666e-06
-3.17052e-06
-2.68307e-06
-2.27045e-06
-1.92128e-06
-1.62592e-06
-1.37589e-06
-1.1643e-06
-9.85288e-07
-8.3377e-07
-7.05574e-07
-5.97089e-07
-5.0525e-07
-4.27565e-07
-3.61845e-07
-3.06185e-07
-2.59096e-07
-2.19273e-07
-1.8555e-07
-1.57019e-07
-1.32879e-07
-1.12449e-07
-9.51589e-08
-8.0532e-08
-6.81529e-08
-5.7679e-08
-4.88145e-08
-4.13115e-08
-3.49654e-08
-2.95916e-08
-2.50424e-08
-2.11892e-08
-1.79273e-08
-1.51625e-08
-1.28186e-08
-1.08306e-08
-9.14334e-09
-7.71161e-09
-6.49565e-09
-5.46301e-09
-4.58605e-09
-3.84166e-09
-3.21015e-09
-2.67539e-09
-2.21984e-09
-1.84423e-09
-1.46796e-09
-1.32525e-09
1.44269e-11
1.44269e-11
0
-0.0668416
-0.0608389
-0.042293
-0.0271276
-0.0175004
-0.0118521
-0.00849208
-0.0063703
-0.00493625
-0.00391077
-0.00314665
-0.00256042
-0.00210109
-0.0017354
-0.00144064
-0.00120071
-0.00100387
-0.00084138
-0.000706567
-0.000594275
-0.00050044
-0.000421831
-0.000355847
-0.00030037
-0.000253666
-0.000214309
-0.000181115
-0.000153102
-0.000129448
-0.000109466
-9.25815e-05
-7.83097e-05
-6.62431e-05
-5.60401e-05
-4.74116e-05
-4.01131e-05
-3.39394e-05
-2.87169e-05
-2.42985e-05
-2.05604e-05
-1.73977e-05
-1.47218e-05
-1.24575e-05
-1.05413e-05
-8.92026e-06
-7.5486e-06
-6.3876e-06
-5.40529e-06
-4.57422e-06
-3.87079e-06
-3.27553e-06
-2.77183e-06
-2.34565e-06
-1.98501e-06
-1.67969e-06
-1.42143e-06
-1.20291e-06
-1.01789e-06
-8.61385e-07
-7.2894e-07
-6.16845e-07
-5.22008e-07
-4.41727e-07
-3.73787e-07
-3.16334e-07
-2.67698e-07
-2.26507e-07
-1.91688e-07
-1.62221e-07
-1.37264e-07
-1.16161e-07
-9.8301e-08
-8.31842e-08
-7.03925e-08
-5.95719e-08
-5.04114e-08
-4.26627e-08
-3.61017e-08
-3.05526e-08
-2.58562e-08
-2.18794e-08
-1.85123e-08
-1.56619e-08
-1.32481e-08
-1.12015e-08
-9.46664e-09
-7.99515e-09
-6.74636e-09
-5.68685e-09
-4.78647e-09
-4.02228e-09
-3.37299e-09
-2.82239e-09
-2.35512e-09
-1.95995e-09
-1.62283e-09
-1.34798e-09
-1.06281e-09
-9.76816e-10
6.24181e-12
6.24181e-12
0
-0.0787076
-0.0554406
-0.0327103
-0.0178114
-0.00965827
-0.00557768
-0.0035471
-0.0024703
-0.00183776
-0.0014258
-0.00113507
-0.000918489
-0.000751447
-0.000619612
-0.000513875
-0.000428072
-0.000357818
-0.000299887
-0.000251857
-0.000211863
-0.000178445
-0.000150447
-0.000126943
-0.000107175
-9.05304e-05
-7.6499e-05
-6.46621e-05
-5.46701e-05
-4.62303e-05
-3.90992e-05
-3.30726e-05
-2.7977e-05
-2.3668e-05
-2.00243e-05
-1.69425e-05
-1.43351e-05
-1.21296e-05
-1.02636e-05
-8.68466e-06
-7.34883e-06
-6.21864e-06
-5.26237e-06
-4.45298e-06
-3.76808e-06
-3.18881e-06
-2.69845e-06
-2.28333e-06
-1.93231e-06
-1.63527e-06
-1.38374e-06
-1.17094e-06
-9.9089e-07
-8.38581e-07
-7.09625e-07
-6.00434e-07
-5.0818e-07
-4.30035e-07
-3.6386e-07
-3.07937e-07
-2.60579e-07
-2.20513e-07
-1.86608e-07
-1.5789e-07
-1.3361e-07
-1.13087e-07
-9.5683e-08
-8.095e-08
-6.85217e-08
-5.79788e-08
-4.90525e-08
-4.1514e-08
-3.51271e-08
-2.97214e-08
-2.51496e-08
-2.12818e-08
-1.8006e-08
-1.52363e-08
-1.28896e-08
-1.09084e-08
-9.22896e-09
-7.80754e-09
-6.60423e-09
-5.58744e-09
-4.72519e-09
-3.99452e-09
-3.37574e-09
-2.85109e-09
-2.40634e-09
-2.029e-09
-1.70844e-09
-1.43662e-09
-1.2059e-09
-1.01029e-09
-8.44428e-10
-7.04265e-10
-5.84115e-10
-4.88533e-10
-3.79754e-10
-3.64953e-10
-7.3308e-12
-7.3308e-12
0
0
0
0
0
0
0
0
0
0
0
0
0
0
0
0
0
0
0
0
0
0
0
0
0
0
0
0
0
0
0
0
0
0
0
0
0
0
0
0
0
0
0
0
0
0
0
0
0
0
0
0
0
0
0
0
0
0
0
0
0
0
0
0
0
0
0
0
0
0
0
0
0
0
0
0
0
0
0
0
0
0
0
0
0
0
0
0
0
0
0
0
0
0
0
0
0
0
0
0
0
0
0
0
0
0
0
0
0
0
0
0
0
0
0
0
0
0
0
0
0
0
0
0
0
0
0
0
0
0
0
0
0
0
0
0
0
0
0
0
0
0
0
0
0
0
0
0
0
0
0
0
0
0
0
0
0
0
0
0
0
0
0
0
0
0
0
0
0
0
0
0
0
0
0
0
0
0
0
0
0
0
0
0
0
0
0
0
0
0
0
0
0
0
0
0
0
0
0
0
0
0
0
0
