# vtk DataFile Version 2.0
FlowField
ASCII
DATASET STRUCTURED_GRID
DIMENSIONS 102 1 12 
POINTS 1224 double
0 0 0
0.3 0 0
0.6 0 0
0.9 0 0
1.2 0 0
1.5 0 0
1.8 0 0
2.1 0 0
2.4 0 0
2.7 0 0
3 0 0
3.3 0 0
3.6 0 0
3.9 0 0
4.2 0 0
4.5 0 0
4.8 0 0
5.1 0 0
5.4 0 0
5.7 0 0
6 0 0
6.3 0 0
6.6 0 0
6.9 0 0
7.2 0 0
7.5 0 0
7.8 0 0
8.1 0 0
8.4 0 0
8.7 0 0
9 0 0
9.3 0 0
9.6 0 0
9.9 0 0
10.2 0 0
10.5 0 0
10.8 0 0
11.1 0 0
11.4 0 0
11.7 0 0
12 0 0
12.3 0 0
12.6 0 0
12.9 0 0
13.2 0 0
13.5 0 0
13.8 0 0
14.1 0 0
14.4 0 0
14.7 0 0
15 0 0
15.3 0 0
15.6 0 0
15.9 0 0
16.2 0 0
16.5 0 0
16.8 0 0
17.1 0 0
17.4 0 0
17.7 0 0
18 0 0
18.3 0 0
18.6 0 0
18.9 0 0
19.2 0 0
19.5 0 0
19.8 0 0
20.1 0 0
20.4 0 0
20.7 0 0
21 0 0
21.3 0 0
21.6 0 0
21.9 0 0
22.2 0 0
22.5 0 0
22.8 0 0
23.1 0 0
23.4 0 0
23.7 0 0
24 0 0
24.3 0 0
24.6 0 0
24.9 0 0
25.2 0 0
25.5 0 0
25.8 0 0
26.1 0 0
26.4 0 0
26.7 0 0
27 0 0
27.3 0 0
27.6 0 0
27.9 0 0
28.2 0 0
28.5 0 0
28.8 0 0
29.1 0 0
29.4 0 0
29.7 0 0
30 0 0
30.3 0 0
0 0.1 0
0.3 0.1 0
0.6 0.1 0
0.9 0.1 0
1.2 0.1 0
1.5 0.1 0
1.8 0.1 0
2.1 0.1 0
2.4 0.1 0
2.7 0.1 0
3 0.1 0
3.3 0.1 0
3.6 0.1 0
3.9 0.1 0
4.2 0.1 0
4.5 0.1 0
4.8 0.1 0
5.1 0.1 0
5.4 0.1 0
5.7 0.1 0
6 0.1 0
6.3 0.1 0
6.6 0.1 0
6.9 0.1 0
7.2 0.1 0
7.5 0.1 0
7.8 0.1 0
8.1 0.1 0
8.4 0.1 0
8.7 0.1 0
9 0.1 0
9.3 0.1 0
9.6 0.1 0
9.9 0.1 0
10.2 0.1 0
10.5 0.1 0
10.8 0.1 0
11.1 0.1 0
11.4 0.1 0
11.7 0.1 0
12 0.1 0
12.3 0.1 0
12.6 0.1 0
12.9 0.1 0
13.2 0.1 0
13.5 0.1 0
13.8 0.1 0
14.1 0.1 0
14.4 0.1 0
14.7 0.1 0
15 0.1 0
15.3 0.1 0
15.6 0.1 0
15.9 0.1 0
16.2 0.1 0
16.5 0.1 0
16.8 0.1 0
17.1 0.1 0
17.4 0.1 0
17.7 0.1 0
18 0.1 0
18.3 0.1 0
18.6 0.1 0
18.9 0.1 0
19.2 0.1 0
19.5 0.1 0
19.8 0.1 0
20.1 0.1 0
20.4 0.1 0
20.7 0.1 0
21 0.1 0
21.3 0.1 0
21.6 0.1 0
21.9 0.1 0
22.2 0.1 0
22.5 0.1 0
22.8 0.1 0
23.1 0.1 0
23.4 0.1 0
23.7 0.1 0
24 0.1 0
24.3 0.1 0
24.6 0.1 0
24.9 0.1 0
25.2 0.1 0
25.5 0.1 0
25.8 0.1 0
26.1 0.1 0
26.4 0.1 0
26.7 0.1 0
27 0.1 0
27.3 0.1 0
27.6 0.1 0
27.9 0.1 0
28.2 0.1 0
28.5 0.1 0
28.8 0.1 0
29.1 0.1 0
29.4 0.1 0
29.7 0.1 0
30 0.1 0
30.3 0.1 0
0 0.2 0
0.3 0.2 0
0.6 0.2 0
0.9 0.2 0
1.2 0.2 0
1.5 0.2 0
1.8 0.2 0
2.1 0.2 0
2.4 0.2 0
2.7 0.2 0
3 0.2 0
3.3 0.2 0
3.6 0.2 0
3.9 0.2 0
4.2 0.2 0
4.5 0.2 0
4.8 0.2 0
5.1 0.2 0
5.4 0.2 0
5.7 0.2 0
6 0.2 0
6.3 0.2 0
6.6 0.2 0
6.9 0.2 0
7.2 0.2 0
7.5 0.2 0
7.8 0.2 0
8.1 0.2 0
8.4 0.2 0
8.7 0.2 0
9 0.2 0
9.3 0.2 0
9.6 0.2 0
9.9 0.2 0
10.2 0.2 0
10.5 0.2 0
10.8 0.2 0
11.1 0.2 0
11.4 0.2 0
11.7 0.2 0
12 0.2 0
12.3 0.2 0
12.6 0.2 0
12.9 0.2 0
13.2 0.2 0
13.5 0.2 0
13.8 0.2 0
14.1 0.2 0
14.4 0.2 0
14.7 0.2 0
15 0.2 0
15.3 0.2 0
15.6 0.2 0
15.9 0.2 0
16.2 0.2 0
16.5 0.2 0
16.8 0.2 0
17.1 0.2 0
17.4 0.2 0
17.7 0.2 0
18 0.2 0
18.3 0.2 0
18.6 0.2 0
18.9 0.2 0
19.2 0.2 0
19.5 0.2 0
19.8 0.2 0
20.1 0.2 0
20.4 0.2 0
20.7 0.2 0
21 0.2 0
21.3 0.2 0
21.6 0.2 0
21.9 0.2 0
22.2 0.2 0
22.5 0.2 0
22.8 0.2 0
23.1 0.2 0
23.4 0.2 0
23.7 0.2 0
24 0.2 0
24.3 0.2 0
24.6 0.2 0
24.9 0.2 0
25.2 0.2 0
25.5 0.2 0
25.8 0.2 0
26.1 0.2 0
26.4 0.2 0
26.7 0.2 0
27 0.2 0
27.3 0.2 0
27.6 0.2 0
27.9 0.2 0
28.2 0.2 0
28.5 0.2 0
28.8 0.2 0
29.1 0.2 0
29.4 0.2 0
29.7 0.2 0
30 0.2 0
30.3 0.2 0
0 0.3 0
0.3 0.3 0
0.6 0.3 0
0.9 0.3 0
1.2 0.3 0
1.5 0.3 0
1.8 0.3 0
2.1 0.3 0
2.4 0.3 0
2.7 0.3 0
3 0.3 0
3.3 0.3 0
3.6 0.3 0
3.9 0.3 0
4.2 0.3 0
4.5 0.3 0
4.8 0.3 0
5.1 0.3 0
5.4 0.3 0
5.7 0.3 0
6 0.3 0
6.3 0.3 0
6.6 0.3 0
6.9 0.3 0
7.2 0.3 0
7.5 0.3 0
7.8 0.3 0
8.1 0.3 0
8.4 0.3 0
8.7 0.3 0
9 0.3 0
9.3 0.3 0
9.6 0.3 0
9.9 0.3 0
10.2 0.3 0
10.5 0.3 0
10.8 0.3 0
11.1 0.3 0
11.4 0.3 0
11.7 0.3 0
12 0.3 0
12.3 0.3 0
12.6 0.3 0
12.9 0.3 0
13.2 0.3 0
13.5 0.3 0
13.8 0.3 0
14.1 0.3 0
14.4 0.3 0
14.7 0.3 0
15 0.3 0
15.3 0.3 0
15.6 0.3 0
15.9 0.3 0
16.2 0.3 0
16.5 0.3 0
16.8 0.3 0
17.1 0.3 0
17.4 0.3 0
17.7 0.3 0
18 0.3 0
18.3 0.3 0
18.6 0.3 0
18.9 0.3 0
19.2 0.3 0
19.5 0.3 0
19.8 0.3 0
20.1 0.3 0
20.4 0.3 0
20.7 0.3 0
21 0.3 0
21.3 0.3 0
21.6 0.3 0
21.9 0.3 0
22.2 0.3 0
22.5 0.3 0
22.8 0.3 0
23.1 0.3 0
23.4 0.3 0
23.7 0.3 0
24 0.3 0
24.3 0.3 0
24.6 0.3 0
24.9 0.3 0
25.2 0.3 0
25.5 0.3 0
25.8 0.3 0
26.1 0.3 0
26.4 0.3 0
26.7 0.3 0
27 0.3 0
27.3 0.3 0
27.6 0.3 0
27.9 0.3 0
28.2 0.3 0
28.5 0.3 0
28.8 0.3 0
29.1 0.3 0
29.4 0.3 0
29.7 0.3 0
30 0.3 0
30.3 0.3 0
0 0.4 0
0.3 0.4 0
0.6 0.4 0
0.9 0.4 0
1.2 0.4 0
1.5 0.4 0
1.8 0.4 0
2.1 0.4 0
2.4 0.4 0
2.7 0.4 0
3 0.4 0
3.3 0.4 0
3.6 0.4 0
3.9 0.4 0
4.2 0.4 0
4.5 0.4 0
4.8 0.4 0
5.1 0.4 0
5.4 0.4 0
5.7 0.4 0
6 0.4 0
6.3 0.4 0
6.6 0.4 0
6.9 0.4 0
7.2 0.4 0
7.5 0.4 0
7.8 0.4 0
8.1 0.4 0
8.4 0.4 0
8.7 0.4 0
9 0.4 0
9.3 0.4 0
9.6 0.4 0
9.9 0.4 0
10.2 0.4 0
10.5 0.4 0
10.8 0.4 0
11.1 0.4 0
11.4 0.4 0
11.7 0.4 0
12 0.4 0
12.3 0.4 0
12.6 0.4 0
12.9 0.4 0
13.2 0.4 0
13.5 0.4 0
13.8 0.4 0
14.1 0.4 0
14.4 0.4 0
14.7 0.4 0
15 0.4 0
15.3 0.4 0
15.6 0.4 0
15.9 0.4 0
16.2 0.4 0
16.5 0.4 0
16.8 0.4 0
17.1 0.4 0
17.4 0.4 0
17.7 0.4 0
18 0.4 0
18.3 0.4 0
18.6 0.4 0
18.9 0.4 0
19.2 0.4 0
19.5 0.4 0
19.8 0.4 0
20.1 0.4 0
20.4 0.4 0
20.7 0.4 0
21 0.4 0
21.3 0.4 0
21.6 0.4 0
21.9 0.4 0
22.2 0.4 0
22.5 0.4 0
22.8 0.4 0
23.1 0.4 0
23.4 0.4 0
23.7 0.4 0
24 0.4 0
24.3 0.4 0
24.6 0.4 0
24.9 0.4 0
25.2 0.4 0
25.5 0.4 0
25.8 0.4 0
26.1 0.4 0
26.4 0.4 0
26.7 0.4 0
27 0.4 0
27.3 0.4 0
27.6 0.4 0
27.9 0.4 0
28.2 0.4 0
28.5 0.4 0
28.8 0.4 0
29.1 0.4 0
29.4 0.4 0
29.7 0.4 0
30 0.4 0
30.3 0.4 0
0 0.5 0
0.3 0.5 0
0.6 0.5 0
0.9 0.5 0
1.2 0.5 0
1.5 0.5 0
1.8 0.5 0
2.1 0.5 0
2.4 0.5 0
2.7 0.5 0
3 0.5 0
3.3 0.5 0
3.6 0.5 0
3.9 0.5 0
4.2 0.5 0
4.5 0.5 0
4.8 0.5 0
5.1 0.5 0
5.4 0.5 0
5.7 0.5 0
6 0.5 0
6.3 0.5 0
6.6 0.5 0
6.9 0.5 0
7.2 0.5 0
7.5 0.5 0
7.8 0.5 0
8.1 0.5 0
8.4 0.5 0
8.7 0.5 0
9 0.5 0
9.3 0.5 0
9.6 0.5 0
9.9 0.5 0
10.2 0.5 0
10.5 0.5 0
10.8 0.5 0
11.1 0.5 0
11.4 0.5 0
11.7 0.5 0
12 0.5 0
12.3 0.5 0
12.6 0.5 0
12.9 0.5 0
13.2 0.5 0
13.5 0.5 0
13.8 0.5 0
14.1 0.5 0
14.4 0.5 0
14.7 0.5 0
15 0.5 0
15.3 0.5 0
15.6 0.5 0
15.9 0.5 0
16.2 0.5 0
16.5 0.5 0
16.8 0.5 0
17.1 0.5 0
17.4 0.5 0
17.7 0.5 0
18 0.5 0
18.3 0.5 0
18.6 0.5 0
18.9 0.5 0
19.2 0.5 0
19.5 0.5 0
19.8 0.5 0
20.1 0.5 0
20.4 0.5 0
20.7 0.5 0
21 0.5 0
21.3 0.5 0
21.6 0.5 0
21.9 0.5 0
22.2 0.5 0
22.5 0.5 0
22.8 0.5 0
23.1 0.5 0
23.4 0.5 0
23.7 0.5 0
24 0.5 0
24.3 0.5 0
24.6 0.5 0
24.9 0.5 0
25.2 0.5 0
25.5 0.5 0
25.8 0.5 0
26.1 0.5 0
26.4 0.5 0
26.7 0.5 0
27 0.5 0
27.3 0.5 0
27.6 0.5 0
27.9 0.5 0
28.2 0.5 0
28.5 0.5 0
28.8 0.5 0
29.1 0.5 0
29.4 0.5 0
29.7 0.5 0
30 0.5 0
30.3 0.5 0
0 0.6 0
0.3 0.6 0
0.6 0.6 0
0.9 0.6 0
1.2 0.6 0
1.5 0.6 0
1.8 0.6 0
2.1 0.6 0
2.4 0.6 0
2.7 0.6 0
3 0.6 0
3.3 0.6 0
3.6 0.6 0
3.9 0.6 0
4.2 0.6 0
4.5 0.6 0
4.8 0.6 0
5.1 0.6 0
5.4 0.6 0
5.7 0.6 0
6 0.6 0
6.3 0.6 0
6.6 0.6 0
6.9 0.6 0
7.2 0.6 0
7.5 0.6 0
7.8 0.6 0
8.1 0.6 0
8.4 0.6 0
8.7 0.6 0
9 0.6 0
9.3 0.6 0
9.6 0.6 0
9.9 0.6 0
10.2 0.6 0
10.5 0.6 0
10.8 0.6 0
11.1 0.6 0
11.4 0.6 0
11.7 0.6 0
12 0.6 0
12.3 0.6 0
12.6 0.6 0
12.9 0.6 0
13.2 0.6 0
13.5 0.6 0
13.8 0.6 0
14.1 0.6 0
14.4 0.6 0
14.7 0.6 0
15 0.6 0
15.3 0.6 0
15.6 0.6 0
15.9 0.6 0
16.2 0.6 0
16.5 0.6 0
16.8 0.6 0
17.1 0.6 0
17.4 0.6 0
17.7 0.6 0
18 0.6 0
18.3 0.6 0
18.6 0.6 0
18.9 0.6 0
19.2 0.6 0
19.5 0.6 0
19.8 0.6 0
20.1 0.6 0
20.4 0.6 0
20.7 0.6 0
21 0.6 0
21.3 0.6 0
21.6 0.6 0
21.9 0.6 0
22.2 0.6 0
22.5 0.6 0
22.8 0.6 0
23.1 0.6 0
23.4 0.6 0
23.7 0.6 0
24 0.6 0
24.3 0.6 0
24.6 0.6 0
24.9 0.6 0
25.2 0.6 0
25.5 0.6 0
25.8 0.6 0
26.1 0.6 0
26.4 0.6 0
26.7 0.6 0
27 0.6 0
27.3 0.6 0
27.6 0.6 0
27.9 0.6 0
28.2 0.6 0
28.5 0.6 0
28.8 0.6 0
29.1 0.6 0
29.4 0.6 0
29.7 0.6 0
30 0.6 0
30.3 0.6 0
0 0.7 0
0.3 0.7 0
0.6 0.7 0
0.9 0.7 0
1.2 0.7 0
1.5 0.7 0
1.8 0.7 0
2.1 0.7 0
2.4 0.7 0
2.7 0.7 0
3 0.7 0
3.3 0.7 0
3.6 0.7 0
3.9 0.7 0
4.2 0.7 0
4.5 0.7 0
4.8 0.7 0
5.1 0.7 0
5.4 0.7 0
5.7 0.7 0
6 0.7 0
6.3 0.7 0
6.6 0.7 0
6.9 0.7 0
7.2 0.7 0
7.5 0.7 0
7.8 0.7 0
8.1 0.7 0
8.4 0.7 0
8.7 0.7 0
9 0.7 0
9.3 0.7 0
9.6 0.7 0
9.9 0.7 0
10.2 0.7 0
10.5 0.7 0
10.8 0.7 0
11.1 0.7 0
11.4 0.7 0
11.7 0.7 0
12 0.7 0
12.3 0.7 0
12.6 0.7 0
12.9 0.7 0
13.2 0.7 0
13.5 0.7 0
13.8 0.7 0
14.1 0.7 0
14.4 0.7 0
14.7 0.7 0
15 0.7 0
15.3 0.7 0
15.6 0.7 0
15.9 0.7 0
16.2 0.7 0
16.5 0.7 0
16.8 0.7 0
17.1 0.7 0
17.4 0.7 0
17.7 0.7 0
18 0.7 0
18.3 0.7 0
18.6 0.7 0
18.9 0.7 0
19.2 0.7 0
19.5 0.7 0
19.8 0.7 0
20.1 0.7 0
20.4 0.7 0
20.7 0.7 0
21 0.7 0
21.3 0.7 0
21.6 0.7 0
21.9 0.7 0
22.2 0.7 0
22.5 0.7 0
22.8 0.7 0
23.1 0.7 0
23.4 0.7 0
23.7 0.7 0
24 0.7 0
24.3 0.7 0
24.6 0.7 0
24.9 0.7 0
25.2 0.7 0
25.5 0.7 0
25.8 0.7 0
26.1 0.7 0
26.4 0.7 0
26.7 0.7 0
27 0.7 0
27.3 0.7 0
27.6 0.7 0
27.9 0.7 0
28.2 0.7 0
28.5 0.7 0
28.8 0.7 0
29.1 0.7 0
29.4 0.7 0
29.7 0.7 0
30 0.7 0
30.3 0.7 0
0 0.8 0
0.3 0.8 0
0.6 0.8 0
0.9 0.8 0
1.2 0.8 0
1.5 0.8 0
1.8 0.8 0
2.1 0.8 0
2.4 0.8 0
2.7 0.8 0
3 0.8 0
3.3 0.8 0
3.6 0.8 0
3.9 0.8 0
4.2 0.8 0
4.5 0.8 0
4.8 0.8 0
5.1 0.8 0
5.4 0.8 0
5.7 0.8 0
6 0.8 0
6.3 0.8 0
6.6 0.8 0
6.9 0.8 0
7.2 0.8 0
7.5 0.8 0
7.8 0.8 0
8.1 0.8 0
8.4 0.8 0
8.7 0.8 0
9 0.8 0
9.3 0.8 0
9.6 0.8 0
9.9 0.8 0
10.2 0.8 0
10.5 0.8 0
10.8 0.8 0
11.1 0.8 0
11.4 0.8 0
11.7 0.8 0
12 0.8 0
12.3 0.8 0
12.6 0.8 0
12.9 0.8 0
13.2 0.8 0
13.5 0.8 0
13.8 0.8 0
14.1 0.8 0
14.4 0.8 0
14.7 0.8 0
15 0.8 0
15.3 0.8 0
15.6 0.8 0
15.9 0.8 0
16.2 0.8 0
16.5 0.8 0
16.8 0.8 0
17.1 0.8 0
17.4 0.8 0
17.7 0.8 0
18 0.8 0
18.3 0.8 0
18.6 0.8 0
18.9 0.8 0
19.2 0.8 0
19.5 0.8 0
19.8 0.8 0
20.1 0.8 0
20.4 0.8 0
20.7 0.8 0
21 0.8 0
21.3 0.8 0
21.6 0.8 0
21.9 0.8 0
22.2 0.8 0
22.5 0.8 0
22.8 0.8 0
23.1 0.8 0
23.4 0.8 0
23.7 0.8 0
24 0.8 0
24.3 0.8 0
24.6 0.8 0
24.9 0.8 0
25.2 0.8 0
25.5 0.8 0
25.8 0.8 0
26.1 0.8 0
26.4 0.8 0
26.7 0.8 0
27 0.8 0
27.3 0.8 0
27.6 0.8 0
27.9 0.8 0
28.2 0.8 0
28.5 0.8 0
28.8 0.8 0
29.1 0.8 0
29.4 0.8 0
29.7 0.8 0
30 0.8 0
30.3 0.8 0
0 0.9 0
0.3 0.9 0
0.6 0.9 0
0.9 0.9 0
1.2 0.9 0
1.5 0.9 0
1.8 0.9 0
2.1 0.9 0
2.4 0.9 0
2.7 0.9 0
3 0.9 0
3.3 0.9 0
3.6 0.9 0
3.9 0.9 0
4.2 0.9 0
4.5 0.9 0
4.8 0.9 0
5.1 0.9 0
5.4 0.9 0
5.7 0.9 0
6 0.9 0
6.3 0.9 0
6.6 0.9 0
6.9 0.9 0
7.2 0.9 0
7.5 0.9 0
7.8 0.9 0
8.1 0.9 0
8.4 0.9 0
8.7 0.9 0
9 0.9 0
9.3 0.9 0
9.6 0.9 0
9.9 0.9 0
10.2 0.9 0
10.5 0.9 0
10.8 0.9 0
11.1 0.9 0
11.4 0.9 0
11.7 0.9 0
12 0.9 0
12.3 0.9 0
12.6 0.9 0
12.9 0.9 0
13.2 0.9 0
13.5 0.9 0
13.8 0.9 0
14.1 0.9 0
14.4 0.9 0
14.7 0.9 0
15 0.9 0
15.3 0.9 0
15.6 0.9 0
15.9 0.9 0
16.2 0.9 0
16.5 0.9 0
16.8 0.9 0
17.1 0.9 0
17.4 0.9 0
17.7 0.9 0
18 0.9 0
18.3 0.9 0
18.6 0.9 0
18.9 0.9 0
19.2 0.9 0
19.5 0.9 0
19.8 0.9 0
20.1 0.9 0
20.4 0.9 0
20.7 0.9 0
21 0.9 0
21.3 0.9 0
21.6 0.9 0
21.9 0.9 0
22.2 0.9 0
22.5 0.9 0
22.8 0.9 0
23.1 0.9 0
23.4 0.9 0
23.7 0.9 0
24 0.9 0
24.3 0.9 0
24.6 0.9 0
24.9 0.9 0
25.2 0.9 0
25.5 0.9 0
25.8 0.9 0
26.1 0.9 0
26.4 0.9 0
26.7 0.9 0
27 0.9 0
27.3 0.9 0
27.6 0.9 0
27.9 0.9 0
28.2 0.9 0
28.5 0.9 0
28.8 0.9 0
29.1 0.9 0
29.4 0.9 0
29.7 0.9 0
30 0.9 0
30.3 0.9 0
0 1 0
0.3 1 0
0.6 1 0
0.9 1 0
1.2 1 0
1.5 1 0
1.8 1 0
2.1 1 0
2.4 1 0
2.7 1 0
3 1 0
3.3 1 0
3.6 1 0
3.9 1 0
4.2 1 0
4.5 1 0
4.8 1 0
5.1 1 0
5.4 1 0
5.7 1 0
6 1 0
6.3 1 0
6.6 1 0
6.9 1 0
7.2 1 0
7.5 1 0
7.8 1 0
8.1 1 0
8.4 1 0
8.7 1 0
9 1 0
9.3 1 0
9.6 1 0
9.9 1 0
10.2 1 0
10.5 1 0
10.8 1 0
11.1 1 0
11.4 1 0
11.7 1 0
12 1 0
12.3 1 0
12.6 1 0
12.9 1 0
13.2 1 0
13.5 1 0
13.8 1 0
14.1 1 0
14.4 1 0
14.7 1 0
15 1 0
15.3 1 0
15.6 1 0
15.9 1 0
16.2 1 0
16.5 1 0
16.8 1 0
17.1 1 0
17.4 1 0
17.7 1 0
18 1 0
18.3 1 0
18.6 1 0
18.9 1 0
19.2 1 0
19.5 1 0
19.8 1 0
20.1 1 0
20.4 1 0
20.7 1 0
21 1 0
21.3 1 0
21.6 1 0
21.9 1 0
22.2 1 0
22.5 1 0
22.8 1 0
23.1 1 0
23.4 1 0
23.7 1 0
24 1 0
24.3 1 0
24.6 1 0
24.9 1 0
25.2 1 0
25.5 1 0
25.8 1 0
26.1 1 0
26.4 1 0
26.7 1 0
27 1 0
27.3 1 0
27.6 1 0
27.9 1 0
28.2 1 0
28.5 1 0
28.8 1 0
29.1 1 0
29.4 1 0
29.7 1 0
30 1 0
30.3 1 0
0 1.1 0
0.3 1.1 0
0.6 1.1 0
0.9 1.1 0
1.2 1.1 0
1.5 1.1 0
1.8 1.1 0
2.1 1.1 0
2.4 1.1 0
2.7 1.1 0
3 1.1 0
3.3 1.1 0
3.6 1.1 0
3.9 1.1 0
4.2 1.1 0
4.5 1.1 0
4.8 1.1 0
5.1 1.1 0
5.4 1.1 0
5.7 1.1 0
6 1.1 0
6.3 1.1 0
6.6 1.1 0
6.9 1.1 0
7.2 1.1 0
7.5 1.1 0
7.8 1.1 0
8.1 1.1 0
8.4 1.1 0
8.7 1.1 0
9 1.1 0
9.3 1.1 0
9.6 1.1 0
9.9 1.1 0
10.2 1.1 0
10.5 1.1 0
10.8 1.1 0
11.1 1.1 0
11.4 1.1 0
11.7 1.1 0
12 1.1 0
12.3 1.1 0
12.6 1.1 0
12.9 1.1 0
13.2 1.1 0
13.5 1.1 0
13.8 1.1 0
14.1 1.1 0
14.4 1.1 0
14.7 1.1 0
15 1.1 0
15.3 1.1 0
15.6 1.1 0
15.9 1.1 0
16.2 1.1 0
16.5 1.1 0
16.8 1.1 0
17.1 1.1 0
17.4 1.1 0
17.7 1.1 0
18 1.1 0
18.3 1.1 0
18.6 1.1 0
18.9 1.1 0
19.2 1.1 0
19.5 1.1 0
19.8 1.1 0
20.1 1.1 0
20.4 1.1 0
20.7 1.1 0
21 1.1 0
21.3 1.1 0
21.6 1.1 0
21.9 1.1 0
22.2 1.1 0
22.5 1.1 0
22.8 1.1 0
23.1 1.1 0
23.4 1.1 0
23.7 1.1 0
24 1.1 0
24.3 1.1 0
24.6 1.1 0
24.9 1.1 0
25.2 1.1 0
25.5 1.1 0
25.8 1.1 0
26.1 1.1 0
26.4 1.1 0
26.7 1.1 0
27 1.1 0
27.3 1.1 0
27.6 1.1 0
27.9 1.1 0
28.2 1.1 0
28.5 1.1 0
28.8 1.1 0
29.1 1.1 0
29.4 1.1 0
29.7 1.1 0
30 1.1 0
30.3 1.1 0

POINT_DATA 1224

SCALARS p double
LOOKUP_TABLE default
2.28411
2.28411
2.15375
2.06745
1.99827
1.94173
1.89415
1.85245
1.81456
1.77927
1.74586
1.7139
1.68311
1.65329
1.62428
1.59597
1.56826
1.54108
1.51434
1.48799
1.46198
1.43628
1.41083
1.38562
1.3606
1.33577
1.31109
1.28655
1.26213
1.23781
1.21359
1.18945
1.16539
1.14138
1.11744
1.09354
1.06969
1.04587
1.02209
0.998341
0.974617
0.950916
0.927235
0.903572
0.879925
0.856292
0.832672
0.809062
0.785462
0.76187
0.738286
0.714708
0.691136
0.667569
0.644007
0.620448
0.596893
0.573341
0.549792
0.526245
0.5027
0.479157
0.455615
0.432075
0.408537
0.384999
0.361463
0.337927
0.314392
0.290858
0.267324
0.243791
0.220258
0.196726
0.173194
0.149663
0.126132
0.102601
0.0790698
0.0555391
0.0320086
0.00847821
-0.0150521
-0.0385824
-0.0621125
-0.0856427
-0.109173
-0.132703
-0.156233
-0.179763
-0.203293
-0.226823
-0.250353
-0.273883
-0.297413
-0.320943
-0.344473
-0.368003
-0.391533
-0.415063
-0.438593
0.438593
2.28411
2.28411
2.15375
2.06745
1.99827
1.94173
1.89415
1.85245
1.81456
1.77927
1.74586
1.7139
1.68311
1.65329
1.62428
1.59597
1.56826
1.54108
1.51434
1.48799
1.46198
1.43628
1.41083
1.38562
1.3606
1.33577
1.31109
1.28655
1.26213
1.23781
1.21359
1.18945
1.16539
1.14138
1.11744
1.09354
1.06969
1.04587
1.02209
0.998341
0.974617
0.950916
0.927235
0.903572
0.879925
0.856292
0.832672
0.809062
0.785462
0.76187
0.738286
0.714708
0.691136
0.667569
0.644007
0.620448
0.596893
0.573341
0.549792
0.526245
0.5027
0.479157
0.455615
0.432075
0.408537
0.384999
0.361463
0.337927
0.314392
0.290858
0.267324
0.243791
0.220258
0.196726
0.173194
0.149663
0.126132
0.102601
0.0790698
0.0555391
0.0320086
0.00847821
-0.0150521
-0.0385824
-0.0621125
-0.0856427
-0.109173
-0.132703
-0.156233
-0.179763
-0.203293
-0.226823
-0.250353
-0.273883
-0.297413
-0.320943
-0.344473
-0.368003
-0.391533
-0.415063
-0.438593
0.438593
2.24589
2.24589
2.15192
2.06939
2.00033
1.94326
1.89517
1.85311
1.815
1.77958
1.74609
1.71408
1.68325
1.6534
1.62438
1.59605
1.56833
1.54113
1.51439
1.48803
1.46202
1.43631
1.41086
1.38564
1.36063
1.33579
1.31111
1.28656
1.26214
1.23782
1.2136
1.18946
1.16539
1.14139
1.11744
1.09355
1.06969
1.04588
1.0221
0.998344
0.97462
0.950918
0.927237
0.903574
0.879927
0.856294
0.832673
0.809063
0.785463
0.761871
0.738287
0.714709
0.691136
0.667569
0.644007
0.620448
0.596893
0.573341
0.549792
0.526245
0.5027
0.479157
0.455616
0.432076
0.408537
0.384999
0.361463
0.337927
0.314392
0.290858
0.267324
0.243791
0.220259
0.196726
0.173194
0.149663
0.126132
0.102601
0.0790698
0.0555391
0.0320086
0.00847821
-0.0150521
-0.0385824
-0.0621125
-0.0856427
-0.109173
-0.132703
-0.156233
-0.179763
-0.203293
-0.226823
-0.250353
-0.273883
-0.297413
-0.320943
-0.344473
-0.368003
-0.391533
-0.415063
-0.438593
0.438593
2.21873
2.21873
2.14908
2.07218
2.00359
1.94572
1.89676
1.85409
1.8156
1.77997
1.74635
1.71427
1.6834
1.65352
1.62447
1.59613
1.5684
1.54119
1.51443
1.48807
1.46205
1.43634
1.41088
1.38566
1.36064
1.33581
1.31112
1.28658
1.26215
1.23783
1.21361
1.18947
1.1654
1.1414
1.11745
1.09355
1.0697
1.04588
1.0221
0.998347
0.974622
0.95092
0.927239
0.903576
0.879928
0.856295
0.832674
0.809064
0.785464
0.761872
0.738287
0.714709
0.691137
0.66757
0.644007
0.620449
0.596893
0.573341
0.549792
0.526245
0.5027
0.479157
0.455616
0.432076
0.408537
0.384999
0.361463
0.337927
0.314392
0.290858
0.267324
0.243791
0.220259
0.196726
0.173194
0.149663
0.126132
0.102601
0.0790698
0.0555391
0.0320086
0.00847821
-0.0150521
-0.0385824
-0.0621125
-0.0856427
-0.109173
-0.132703
-0.156233
-0.179763
-0.203293
-0.226823
-0.250353
-0.273883
-0.297413
-0.320943
-0.344473
-0.368003
-0.391533
-0.415063
-0.438593
0.438593
2.20234
2.20234
2.14668
2.0744
2.00646
1.94802
1.89834
1.8551
1.81626
1.78041
1.74666
1.7145
1.68357
1.65366
1.62458
1.59622
1.56847
1.54125
1.51448
1.48811
1.46209
1.43637
1.41091
1.38569
1.36067
1.33582
1.31114
1.28659
1.26216
1.23784
1.21362
1.18948
1.16541
1.1414
1.11745
1.09355
1.0697
1.04588
1.0221
0.99835
0.974624
0.950922
0.927241
0.903577
0.87993
0.856296
0.832675
0.809065
0.785465
0.761872
0.738288
0.71471
0.691138
0.66757
0.644008
0.620449
0.596894
0.573342
0.549792
0.526245
0.5027
0.479157
0.455616
0.432076
0.408537
0.384999
0.361463
0.337927
0.314392
0.290858
0.267324
0.243791
0.220259
0.196726
0.173194
0.149663
0.126132
0.102601
0.0790698
0.0555392
0.0320086
0.00847821
-0.0150521
-0.0385824
-0.0621125
-0.0856427
-0.109173
-0.132703
-0.156233
-0.179763
-0.203293
-0.226823
-0.250353
-0.273883
-0.297413
-0.320943
-0.344473
-0.368003
-0.391533
-0.415063
-0.438593
0.438593
2.19469
2.19469
2.14538
2.07557
2.00805
1.94934
1.89927
1.85573
1.81668
1.7807
1.74688
1.71466
1.6837
1.65376
1.62467
1.59629
1.56853
1.5413
1.51452
1.48815
1.46212
1.43639
1.41093
1.38571
1.36068
1.33584
1.31115
1.2866
1.26217
1.23785
1.21363
1.18948
1.16541
1.14141
1.11746
1.09356
1.0697
1.04589
1.0221
0.998352
0.974626
0.950924
0.927242
0.903579
0.879931
0.856297
0.832676
0.809066
0.785465
0.761873
0.738288
0.71471
0.691138
0.667571
0.644008
0.620449
0.596894
0.573342
0.549792
0.526245
0.5027
0.479157
0.455616
0.432076
0.408537
0.385
0.361463
0.337927
0.314392
0.290858
0.267324
0.243791
0.220259
0.196726
0.173195
0.149663
0.126132
0.102601
0.0790698
0.0555392
0.0320086
0.00847821
-0.0150521
-0.0385824
-0.0621125
-0.0856427
-0.109173
-0.132703
-0.156233
-0.179763
-0.203293
-0.226823
-0.250353
-0.273883
-0.297413
-0.320943
-0.344473
-0.368003
-0.391533
-0.415063
-0.438593
0.438593
2.19469
2.19469
2.14538
2.07557
2.00805
1.94934
1.89927
1.85573
1.81668
1.7807
1.74688
1.71466
1.6837
1.65376
1.62467
1.59629
1.56853
1.5413
1.51452
1.48815
1.46212
1.43639
1.41093
1.38571
1.36068
1.33584
1.31115
1.2866
1.26217
1.23785
1.21363
1.18948
1.16541
1.14141
1.11746
1.09356
1.0697
1.04589
1.0221
0.998352
0.974626
0.950924
0.927242
0.903579
0.879931
0.856297
0.832676
0.809066
0.785465
0.761873
0.738288
0.71471
0.691138
0.667571
0.644008
0.620449
0.596894
0.573342
0.549792
0.526245
0.5027
0.479157
0.455616
0.432076
0.408537
0.385
0.361463
0.337927
0.314392
0.290858
0.267324
0.243791
0.220259
0.196726
0.173195
0.149663
0.126132
0.102601
0.0790698
0.0555392
0.0320086
0.00847821
-0.0150521
-0.0385824
-0.0621125
-0.0856427
-0.109173
-0.132703
-0.156233
-0.179763
-0.203293
-0.226823
-0.250353
-0.273883
-0.297413
-0.320943
-0.344473
-0.368003
-0.391533
-0.415063
-0.438593
0.438593
2.20234
2.20234
2.14668
2.0744
2.00646
1.94802
1.89834
1.8551
1.81626
1.78041
1.74666
1.7145
1.68357
1.65366
1.62458
1.59622
1.56847
1.54125
1.51448
1.48811
1.46209
1.43637
1.41091
1.38569
1.36067
1.33582
1.31114
1.28659
1.26216
1.23784
1.21362
1.18948
1.16541
1.1414
1.11745
1.09355
1.0697
1.04588
1.0221
0.99835
0.974624
0.950922
0.927241
0.903577
0.87993
0.856296
0.832675
0.809065
0.785465
0.761872
0.738288
0.71471
0.691138
0.66757
0.644008
0.620449
0.596894
0.573342
0.549792
0.526245
0.5027
0.479157
0.455616
0.432076
0.408537
0.384999
0.361463
0.337927
0.314392
0.290858
0.267324
0.243791
0.220259
0.196726
0.173194
0.149663
0.126132
0.102601
0.0790698
0.0555392
0.0320086
0.00847821
-0.0150521
-0.0385824
-0.0621125
-0.0856427
-0.109173
-0.132703
-0.156233
-0.179763
-0.203293
-0.226823
-0.250353
-0.273883
-0.297413
-0.320943
-0.344473
-0.368003
-0.391533
-0.415063
-0.438593
0.438593
2.21873
2.21873
2.14908
2.07218
2.00359
1.94572
1.89676
1.85409
1.8156
1.77997
1.74635
1.71427
1.6834
1.65352
1.62447
1.59613
1.5684
1.54119
1.51443
1.48807
1.46205
1.43634
1.41088
1.38566
1.36064
1.3358
1.31112
1.28658
1.26215
1.23783
1.21361
1.18947
1.1654
1.1414
1.11745
1.09355
1.0697
1.04588
1.0221
0.998347
0.974622
0.95092
0.927239
0.903576
0.879928
0.856295
0.832674
0.809064
0.785464
0.761872
0.738287
0.714709
0.691137
0.66757
0.644007
0.620449
0.596894
0.573341
0.549792
0.526245
0.5027
0.479157
0.455616
0.432076
0.408537
0.384999
0.361463
0.337927
0.314392
0.290858
0.267324
0.243791
0.220259
0.196726
0.173194
0.149663
0.126132
0.102601
0.0790698
0.0555391
0.0320086
0.0084782
-0.0150521
-0.0385824
-0.0621125
-0.0856427
-0.109173
-0.132703
-0.156233
-0.179763
-0.203293
-0.226823
-0.250353
-0.273883
-0.297413
-0.320943
-0.344473
-0.368003
-0.391533
-0.415063
-0.438593
0.438593
2.24588
2.24588
2.15192
2.06939
2.00033
1.94327
1.89517
1.85311
1.815
1.77958
1.74609
1.71408
1.68325
1.6534
1.62438
1.59605
1.56833
1.54113
1.51439
1.48803
1.46202
1.43631
1.41086
1.38564
1.36063
1.33579
1.31111
1.28656
1.26214
1.23782
1.2136
1.18946
1.16539
1.14139
1.11744
1.09355
1.06969
1.04588
1.0221
0.998344
0.97462
0.950918
0.927237
0.903574
0.879927
0.856294
0.832673
0.809063
0.785463
0.761871
0.738287
0.714709
0.691137
0.667569
0.644007
0.620448
0.596893
0.573341
0.549792
0.526245
0.5027
0.479157
0.455615
0.432075
0.408537
0.384999
0.361463
0.337927
0.314392
0.290858
0.267324
0.243791
0.220258
0.196726
0.173194
0.149663
0.126132
0.102601
0.0790698
0.0555391
0.0320086
0.0084782
-0.0150521
-0.0385824
-0.0621126
-0.0856427
-0.109173
-0.132703
-0.156233
-0.179763
-0.203293
-0.226823
-0.250353
-0.273883
-0.297413
-0.320943
-0.344473
-0.368003
-0.391533
-0.415063
-0.438593
0.438593
2.28411
2.28411
2.15375
2.06745
1.99827
1.94173
1.89415
1.85245
1.81456
1.77927
1.74586
1.7139
1.68311
1.65329
1.62428
1.59597
1.56826
1.54107
1.51433
1.48799
1.46198
1.43628
1.41083
1.38562
1.3606
1.33577
1.31109
1.28655
1.26213
1.23781
1.21359
1.18945
1.16539
1.14138
1.11744
1.09354
1.06969
1.04587
1.02209
0.998341
0.974617
0.950916
0.927235
0.903572
0.879925
0.856292
0.832672
0.809062
0.785462
0.76187
0.738286
0.714708
0.691136
0.667569
0.644006
0.620448
0.596893
0.573341
0.549791
0.526245
0.5027
0.479157
0.455615
0.432075
0.408537
0.384999
0.361463
0.337927
0.314392
0.290858
0.267324
0.243791
0.220258
0.196726
0.173194
0.149663
0.126132
0.102601
0.0790698
0.0555391
0.0320086
0.00847819
-0.0150521
-0.0385824
-0.0621126
-0.0856427
-0.109173
-0.132703
-0.156233
-0.179763
-0.203293
-0.226823
-0.250353
-0.273883
-0.297413
-0.320943
-0.344473
-0.368003
-0.391533
-0.415063
-0.438593
0.438593
2.28411
2.28411
2.15375
2.06745
1.99827
1.94173
1.89415
1.85245
1.81456
1.77927
1.74586
1.7139
1.68311
1.65329
1.62428
1.59597
1.56826
1.54107
1.51433
1.48799
1.46198
1.43628
1.41083
1.38562
1.3606
1.33577
1.31109
1.28655
1.26213
1.23781
1.21359
1.18945
1.16539
1.14138
1.11744
1.09354
1.06969
1.04587
1.02209
0.998341
0.974617
0.950916
0.927235
0.903572
0.879925
0.856292
0.832672
0.809062
0.785462
0.76187
0.738286
0.714708
0.691136
0.667569
0.644006
0.620448
0.596893
0.573341
0.549791
0.526245
0.5027
0.479157
0.455615
0.432075
0.408537
0.384999
0.361463
0.337927
0.314392
0.290858
0.267324
0.243791
0.220258
0.196726
0.173194
0.149663
0.126132
0.102601
0.0790698
0.0555391
0.0320086
0.00847819
-0.0150521
-0.0385824
-0.0621126
-0.0856427
-0.109173
-0.132703
-0.156233
-0.179763
-0.203293
-0.226823
-0.250353
-0.273883
-0.297413
-0.320943
-0.344473
-0.368003
-0.391533
-0.415063
-0.438593
0.438593
