# vtk DataFile Version 2.0
FlowField
ASCII
DATASET STRUCTURED_GRID
DIMENSIONS 101 11 1 
POINTS 1111 double
0 0 0
0.3 0 0
0.6 0 0
0.9 0 0
1.2 0 0
1.5 0 0
1.8 0 0
2.1 0 0
2.4 0 0
2.7 0 0
3 0 0
3.3 0 0
3.6 0 0
3.9 0 0
4.2 0 0
4.5 0 0
4.8 0 0
5.1 0 0
5.4 0 0
5.7 0 0
6 0 0
6.3 0 0
6.6 0 0
6.9 0 0
7.2 0 0
7.5 0 0
7.8 0 0
8.1 0 0
8.4 0 0
8.7 0 0
9 0 0
9.3 0 0
9.6 0 0
9.9 0 0
10.2 0 0
10.5 0 0
10.8 0 0
11.1 0 0
11.4 0 0
11.7 0 0
12 0 0
12.3 0 0
12.6 0 0
12.9 0 0
13.2 0 0
13.5 0 0
13.8 0 0
14.1 0 0
14.4 0 0
14.7 0 0
15 0 0
15.3 0 0
15.6 0 0
15.9 0 0
16.2 0 0
16.5 0 0
16.8 0 0
17.1 0 0
17.4 0 0
17.7 0 0
18 0 0
18.3 0 0
18.6 0 0
18.9 0 0
19.2 0 0
19.5 0 0
19.8 0 0
20.1 0 0
20.4 0 0
20.7 0 0
21 0 0
21.3 0 0
21.6 0 0
21.9 0 0
22.2 0 0
22.5 0 0
22.8 0 0
23.1 0 0
23.4 0 0
23.7 0 0
24 0 0
24.3 0 0
24.6 0 0
24.9 0 0
25.2 0 0
25.5 0 0
25.8 0 0
26.1 0 0
26.4 0 0
26.7 0 0
27 0 0
27.3 0 0
27.6 0 0
27.9 0 0
28.2 0 0
28.5 0 0
28.8 0 0
29.1 0 0
29.4 0 0
29.7 0 0
30 0 0
0 0.1 0
0.3 0.1 0
0.6 0.1 0
0.9 0.1 0
1.2 0.1 0
1.5 0.1 0
1.8 0.1 0
2.1 0.1 0
2.4 0.1 0
2.7 0.1 0
3 0.1 0
3.3 0.1 0
3.6 0.1 0
3.9 0.1 0
4.2 0.1 0
4.5 0.1 0
4.8 0.1 0
5.1 0.1 0
5.4 0.1 0
5.7 0.1 0
6 0.1 0
6.3 0.1 0
6.6 0.1 0
6.9 0.1 0
7.2 0.1 0
7.5 0.1 0
7.8 0.1 0
8.1 0.1 0
8.4 0.1 0
8.7 0.1 0
9 0.1 0
9.3 0.1 0
9.6 0.1 0
9.9 0.1 0
10.2 0.1 0
10.5 0.1 0
10.8 0.1 0
11.1 0.1 0
11.4 0.1 0
11.7 0.1 0
12 0.1 0
12.3 0.1 0
12.6 0.1 0
12.9 0.1 0
13.2 0.1 0
13.5 0.1 0
13.8 0.1 0
14.1 0.1 0
14.4 0.1 0
14.7 0.1 0
15 0.1 0
15.3 0.1 0
15.6 0.1 0
15.9 0.1 0
16.2 0.1 0
16.5 0.1 0
16.8 0.1 0
17.1 0.1 0
17.4 0.1 0
17.7 0.1 0
18 0.1 0
18.3 0.1 0
18.6 0.1 0
18.9 0.1 0
19.2 0.1 0
19.5 0.1 0
19.8 0.1 0
20.1 0.1 0
20.4 0.1 0
20.7 0.1 0
21 0.1 0
21.3 0.1 0
21.6 0.1 0
21.9 0.1 0
22.2 0.1 0
22.5 0.1 0
22.8 0.1 0
23.1 0.1 0
23.4 0.1 0
23.7 0.1 0
24 0.1 0
24.3 0.1 0
24.6 0.1 0
24.9 0.1 0
25.2 0.1 0
25.5 0.1 0
25.8 0.1 0
26.1 0.1 0
26.4 0.1 0
26.7 0.1 0
27 0.1 0
27.3 0.1 0
27.6 0.1 0
27.9 0.1 0
28.2 0.1 0
28.5 0.1 0
28.8 0.1 0
29.1 0.1 0
29.4 0.1 0
29.7 0.1 0
30 0.1 0
0 0.2 0
0.3 0.2 0
0.6 0.2 0
0.9 0.2 0
1.2 0.2 0
1.5 0.2 0
1.8 0.2 0
2.1 0.2 0
2.4 0.2 0
2.7 0.2 0
3 0.2 0
3.3 0.2 0
3.6 0.2 0
3.9 0.2 0
4.2 0.2 0
4.5 0.2 0
4.8 0.2 0
5.1 0.2 0
5.4 0.2 0
5.7 0.2 0
6 0.2 0
6.3 0.2 0
6.6 0.2 0
6.9 0.2 0
7.2 0.2 0
7.5 0.2 0
7.8 0.2 0
8.1 0.2 0
8.4 0.2 0
8.7 0.2 0
9 0.2 0
9.3 0.2 0
9.6 0.2 0
9.9 0.2 0
10.2 0.2 0
10.5 0.2 0
10.8 0.2 0
11.1 0.2 0
11.4 0.2 0
11.7 0.2 0
12 0.2 0
12.3 0.2 0
12.6 0.2 0
12.9 0.2 0
13.2 0.2 0
13.5 0.2 0
13.8 0.2 0
14.1 0.2 0
14.4 0.2 0
14.7 0.2 0
15 0.2 0
15.3 0.2 0
15.6 0.2 0
15.9 0.2 0
16.2 0.2 0
16.5 0.2 0
16.8 0.2 0
17.1 0.2 0
17.4 0.2 0
17.7 0.2 0
18 0.2 0
18.3 0.2 0
18.6 0.2 0
18.9 0.2 0
19.2 0.2 0
19.5 0.2 0
19.8 0.2 0
20.1 0.2 0
20.4 0.2 0
20.7 0.2 0
21 0.2 0
21.3 0.2 0
21.6 0.2 0
21.9 0.2 0
22.2 0.2 0
22.5 0.2 0
22.8 0.2 0
23.1 0.2 0
23.4 0.2 0
23.7 0.2 0
24 0.2 0
24.3 0.2 0
24.6 0.2 0
24.9 0.2 0
25.2 0.2 0
25.5 0.2 0
25.8 0.2 0
26.1 0.2 0
26.4 0.2 0
26.7 0.2 0
27 0.2 0
27.3 0.2 0
27.6 0.2 0
27.9 0.2 0
28.2 0.2 0
28.5 0.2 0
28.8 0.2 0
29.1 0.2 0
29.4 0.2 0
29.7 0.2 0
30 0.2 0
0 0.3 0
0.3 0.3 0
0.6 0.3 0
0.9 0.3 0
1.2 0.3 0
1.5 0.3 0
1.8 0.3 0
2.1 0.3 0
2.4 0.3 0
2.7 0.3 0
3 0.3 0
3.3 0.3 0
3.6 0.3 0
3.9 0.3 0
4.2 0.3 0
4.5 0.3 0
4.8 0.3 0
5.1 0.3 0
5.4 0.3 0
5.7 0.3 0
6 0.3 0
6.3 0.3 0
6.6 0.3 0
6.9 0.3 0
7.2 0.3 0
7.5 0.3 0
7.8 0.3 0
8.1 0.3 0
8.4 0.3 0
8.7 0.3 0
9 0.3 0
9.3 0.3 0
9.6 0.3 0
9.9 0.3 0
10.2 0.3 0
10.5 0.3 0
10.8 0.3 0
11.1 0.3 0
11.4 0.3 0
11.7 0.3 0
12 0.3 0
12.3 0.3 0
12.6 0.3 0
12.9 0.3 0
13.2 0.3 0
13.5 0.3 0
13.8 0.3 0
14.1 0.3 0
14.4 0.3 0
14.7 0.3 0
15 0.3 0
15.3 0.3 0
15.6 0.3 0
15.9 0.3 0
16.2 0.3 0
16.5 0.3 0
16.8 0.3 0
17.1 0.3 0
17.4 0.3 0
17.7 0.3 0
18 0.3 0
18.3 0.3 0
18.6 0.3 0
18.9 0.3 0
19.2 0.3 0
19.5 0.3 0
19.8 0.3 0
20.1 0.3 0
20.4 0.3 0
20.7 0.3 0
21 0.3 0
21.3 0.3 0
21.6 0.3 0
21.9 0.3 0
22.2 0.3 0
22.5 0.3 0
22.8 0.3 0
23.1 0.3 0
23.4 0.3 0
23.7 0.3 0
24 0.3 0
24.3 0.3 0
24.6 0.3 0
24.9 0.3 0
25.2 0.3 0
25.5 0.3 0
25.8 0.3 0
26.1 0.3 0
26.4 0.3 0
26.7 0.3 0
27 0.3 0
27.3 0.3 0
27.6 0.3 0
27.9 0.3 0
28.2 0.3 0
28.5 0.3 0
28.8 0.3 0
29.1 0.3 0
29.4 0.3 0
29.7 0.3 0
30 0.3 0
0 0.4 0
0.3 0.4 0
0.6 0.4 0
0.9 0.4 0
1.2 0.4 0
1.5 0.4 0
1.8 0.4 0
2.1 0.4 0
2.4 0.4 0
2.7 0.4 0
3 0.4 0
3.3 0.4 0
3.6 0.4 0
3.9 0.4 0
4.2 0.4 0
4.5 0.4 0
4.8 0.4 0
5.1 0.4 0
5.4 0.4 0
5.7 0.4 0
6 0.4 0
6.3 0.4 0
6.6 0.4 0
6.9 0.4 0
7.2 0.4 0
7.5 0.4 0
7.8 0.4 0
8.1 0.4 0
8.4 0.4 0
8.7 0.4 0
9 0.4 0
9.3 0.4 0
9.6 0.4 0
9.9 0.4 0
10.2 0.4 0
10.5 0.4 0
10.8 0.4 0
11.1 0.4 0
11.4 0.4 0
11.7 0.4 0
12 0.4 0
12.3 0.4 0
12.6 0.4 0
12.9 0.4 0
13.2 0.4 0
13.5 0.4 0
13.8 0.4 0
14.1 0.4 0
14.4 0.4 0
14.7 0.4 0
15 0.4 0
15.3 0.4 0
15.6 0.4 0
15.9 0.4 0
16.2 0.4 0
16.5 0.4 0
16.8 0.4 0
17.1 0.4 0
17.4 0.4 0
17.7 0.4 0
18 0.4 0
18.3 0.4 0
18.6 0.4 0
18.9 0.4 0
19.2 0.4 0
19.5 0.4 0
19.8 0.4 0
20.1 0.4 0
20.4 0.4 0
20.7 0.4 0
21 0.4 0
21.3 0.4 0
21.6 0.4 0
21.9 0.4 0
22.2 0.4 0
22.5 0.4 0
22.8 0.4 0
23.1 0.4 0
23.4 0.4 0
23.7 0.4 0
24 0.4 0
24.3 0.4 0
24.6 0.4 0
24.9 0.4 0
25.2 0.4 0
25.5 0.4 0
25.8 0.4 0
26.1 0.4 0
26.4 0.4 0
26.7 0.4 0
27 0.4 0
27.3 0.4 0
27.6 0.4 0
27.9 0.4 0
28.2 0.4 0
28.5 0.4 0
28.8 0.4 0
29.1 0.4 0
29.4 0.4 0
29.7 0.4 0
30 0.4 0
0 0.5 0
0.3 0.5 0
0.6 0.5 0
0.9 0.5 0
1.2 0.5 0
1.5 0.5 0
1.8 0.5 0
2.1 0.5 0
2.4 0.5 0
2.7 0.5 0
3 0.5 0
3.3 0.5 0
3.6 0.5 0
3.9 0.5 0
4.2 0.5 0
4.5 0.5 0
4.8 0.5 0
5.1 0.5 0
5.4 0.5 0
5.7 0.5 0
6 0.5 0
6.3 0.5 0
6.6 0.5 0
6.9 0.5 0
7.2 0.5 0
7.5 0.5 0
7.8 0.5 0
8.1 0.5 0
8.4 0.5 0
8.7 0.5 0
9 0.5 0
9.3 0.5 0
9.6 0.5 0
9.9 0.5 0
10.2 0.5 0
10.5 0.5 0
10.8 0.5 0
11.1 0.5 0
11.4 0.5 0
11.7 0.5 0
12 0.5 0
12.3 0.5 0
12.6 0.5 0
12.9 0.5 0
13.2 0.5 0
13.5 0.5 0
13.8 0.5 0
14.1 0.5 0
14.4 0.5 0
14.7 0.5 0
15 0.5 0
15.3 0.5 0
15.6 0.5 0
15.9 0.5 0
16.2 0.5 0
16.5 0.5 0
16.8 0.5 0
17.1 0.5 0
17.4 0.5 0
17.7 0.5 0
18 0.5 0
18.3 0.5 0
18.6 0.5 0
18.9 0.5 0
19.2 0.5 0
19.5 0.5 0
19.8 0.5 0
20.1 0.5 0
20.4 0.5 0
20.7 0.5 0
21 0.5 0
21.3 0.5 0
21.6 0.5 0
21.9 0.5 0
22.2 0.5 0
22.5 0.5 0
22.8 0.5 0
23.1 0.5 0
23.4 0.5 0
23.7 0.5 0
24 0.5 0
24.3 0.5 0
24.6 0.5 0
24.9 0.5 0
25.2 0.5 0
25.5 0.5 0
25.8 0.5 0
26.1 0.5 0
26.4 0.5 0
26.7 0.5 0
27 0.5 0
27.3 0.5 0
27.6 0.5 0
27.9 0.5 0
28.2 0.5 0
28.5 0.5 0
28.8 0.5 0
29.1 0.5 0
29.4 0.5 0
29.7 0.5 0
30 0.5 0
0 0.6 0
0.3 0.6 0
0.6 0.6 0
0.9 0.6 0
1.2 0.6 0
1.5 0.6 0
1.8 0.6 0
2.1 0.6 0
2.4 0.6 0
2.7 0.6 0
3 0.6 0
3.3 0.6 0
3.6 0.6 0
3.9 0.6 0
4.2 0.6 0
4.5 0.6 0
4.8 0.6 0
5.1 0.6 0
5.4 0.6 0
5.7 0.6 0
6 0.6 0
6.3 0.6 0
6.6 0.6 0
6.9 0.6 0
7.2 0.6 0
7.5 0.6 0
7.8 0.6 0
8.1 0.6 0
8.4 0.6 0
8.7 0.6 0
9 0.6 0
9.3 0.6 0
9.6 0.6 0
9.9 0.6 0
10.2 0.6 0
10.5 0.6 0
10.8 0.6 0
11.1 0.6 0
11.4 0.6 0
11.7 0.6 0
12 0.6 0
12.3 0.6 0
12.6 0.6 0
12.9 0.6 0
13.2 0.6 0
13.5 0.6 0
13.8 0.6 0
14.1 0.6 0
14.4 0.6 0
14.7 0.6 0
15 0.6 0
15.3 0.6 0
15.6 0.6 0
15.9 0.6 0
16.2 0.6 0
16.5 0.6 0
16.8 0.6 0
17.1 0.6 0
17.4 0.6 0
17.7 0.6 0
18 0.6 0
18.3 0.6 0
18.6 0.6 0
18.9 0.6 0
19.2 0.6 0
19.5 0.6 0
19.8 0.6 0
20.1 0.6 0
20.4 0.6 0
20.7 0.6 0
21 0.6 0
21.3 0.6 0
21.6 0.6 0
21.9 0.6 0
22.2 0.6 0
22.5 0.6 0
22.8 0.6 0
23.1 0.6 0
23.4 0.6 0
23.7 0.6 0
24 0.6 0
24.3 0.6 0
24.6 0.6 0
24.9 0.6 0
25.2 0.6 0
25.5 0.6 0
25.8 0.6 0
26.1 0.6 0
26.4 0.6 0
26.7 0.6 0
27 0.6 0
27.3 0.6 0
27.6 0.6 0
27.9 0.6 0
28.2 0.6 0
28.5 0.6 0
28.8 0.6 0
29.1 0.6 0
29.4 0.6 0
29.7 0.6 0
30 0.6 0
0 0.7 0
0.3 0.7 0
0.6 0.7 0
0.9 0.7 0
1.2 0.7 0
1.5 0.7 0
1.8 0.7 0
2.1 0.7 0
2.4 0.7 0
2.7 0.7 0
3 0.7 0
3.3 0.7 0
3.6 0.7 0
3.9 0.7 0
4.2 0.7 0
4.5 0.7 0
4.8 0.7 0
5.1 0.7 0
5.4 0.7 0
5.7 0.7 0
6 0.7 0
6.3 0.7 0
6.6 0.7 0
6.9 0.7 0
7.2 0.7 0
7.5 0.7 0
7.8 0.7 0
8.1 0.7 0
8.4 0.7 0
8.7 0.7 0
9 0.7 0
9.3 0.7 0
9.6 0.7 0
9.9 0.7 0
10.2 0.7 0
10.5 0.7 0
10.8 0.7 0
11.1 0.7 0
11.4 0.7 0
11.7 0.7 0
12 0.7 0
12.3 0.7 0
12.6 0.7 0
12.9 0.7 0
13.2 0.7 0
13.5 0.7 0
13.8 0.7 0
14.1 0.7 0
14.4 0.7 0
14.7 0.7 0
15 0.7 0
15.3 0.7 0
15.6 0.7 0
15.9 0.7 0
16.2 0.7 0
16.5 0.7 0
16.8 0.7 0
17.1 0.7 0
17.4 0.7 0
17.7 0.7 0
18 0.7 0
18.3 0.7 0
18.6 0.7 0
18.9 0.7 0
19.2 0.7 0
19.5 0.7 0
19.8 0.7 0
20.1 0.7 0
20.4 0.7 0
20.7 0.7 0
21 0.7 0
21.3 0.7 0
21.6 0.7 0
21.9 0.7 0
22.2 0.7 0
22.5 0.7 0
22.8 0.7 0
23.1 0.7 0
23.4 0.7 0
23.7 0.7 0
24 0.7 0
24.3 0.7 0
24.6 0.7 0
24.9 0.7 0
25.2 0.7 0
25.5 0.7 0
25.8 0.7 0
26.1 0.7 0
26.4 0.7 0
26.7 0.7 0
27 0.7 0
27.3 0.7 0
27.6 0.7 0
27.9 0.7 0
28.2 0.7 0
28.5 0.7 0
28.8 0.7 0
29.1 0.7 0
29.4 0.7 0
29.7 0.7 0
30 0.7 0
0 0.8 0
0.3 0.8 0
0.6 0.8 0
0.9 0.8 0
1.2 0.8 0
1.5 0.8 0
1.8 0.8 0
2.1 0.8 0
2.4 0.8 0
2.7 0.8 0
3 0.8 0
3.3 0.8 0
3.6 0.8 0
3.9 0.8 0
4.2 0.8 0
4.5 0.8 0
4.8 0.8 0
5.1 0.8 0
5.4 0.8 0
5.7 0.8 0
6 0.8 0
6.3 0.8 0
6.6 0.8 0
6.9 0.8 0
7.2 0.8 0
7.5 0.8 0
7.8 0.8 0
8.1 0.8 0
8.4 0.8 0
8.7 0.8 0
9 0.8 0
9.3 0.8 0
9.6 0.8 0
9.9 0.8 0
10.2 0.8 0
10.5 0.8 0
10.8 0.8 0
11.1 0.8 0
11.4 0.8 0
11.7 0.8 0
12 0.8 0
12.3 0.8 0
12.6 0.8 0
12.9 0.8 0
13.2 0.8 0
13.5 0.8 0
13.8 0.8 0
14.1 0.8 0
14.4 0.8 0
14.7 0.8 0
15 0.8 0
15.3 0.8 0
15.6 0.8 0
15.9 0.8 0
16.2 0.8 0
16.5 0.8 0
16.8 0.8 0
17.1 0.8 0
17.4 0.8 0
17.7 0.8 0
18 0.8 0
18.3 0.8 0
18.6 0.8 0
18.9 0.8 0
19.2 0.8 0
19.5 0.8 0
19.8 0.8 0
20.1 0.8 0
20.4 0.8 0
20.7 0.8 0
21 0.8 0
21.3 0.8 0
21.6 0.8 0
21.9 0.8 0
22.2 0.8 0
22.5 0.8 0
22.8 0.8 0
23.1 0.8 0
23.4 0.8 0
23.7 0.8 0
24 0.8 0
24.3 0.8 0
24.6 0.8 0
24.9 0.8 0
25.2 0.8 0
25.5 0.8 0
25.8 0.8 0
26.1 0.8 0
26.4 0.8 0
26.7 0.8 0
27 0.8 0
27.3 0.8 0
27.6 0.8 0
27.9 0.8 0
28.2 0.8 0
28.5 0.8 0
28.8 0.8 0
29.1 0.8 0
29.4 0.8 0
29.7 0.8 0
30 0.8 0
0 0.9 0
0.3 0.9 0
0.6 0.9 0
0.9 0.9 0
1.2 0.9 0
1.5 0.9 0
1.8 0.9 0
2.1 0.9 0
2.4 0.9 0
2.7 0.9 0
3 0.9 0
3.3 0.9 0
3.6 0.9 0
3.9 0.9 0
4.2 0.9 0
4.5 0.9 0
4.8 0.9 0
5.1 0.9 0
5.4 0.9 0
5.7 0.9 0
6 0.9 0
6.3 0.9 0
6.6 0.9 0
6.9 0.9 0
7.2 0.9 0
7.5 0.9 0
7.8 0.9 0
8.1 0.9 0
8.4 0.9 0
8.7 0.9 0
9 0.9 0
9.3 0.9 0
9.6 0.9 0
9.9 0.9 0
10.2 0.9 0
10.5 0.9 0
10.8 0.9 0
11.1 0.9 0
11.4 0.9 0
11.7 0.9 0
12 0.9 0
12.3 0.9 0
12.6 0.9 0
12.9 0.9 0
13.2 0.9 0
13.5 0.9 0
13.8 0.9 0
14.1 0.9 0
14.4 0.9 0
14.7 0.9 0
15 0.9 0
15.3 0.9 0
15.6 0.9 0
15.9 0.9 0
16.2 0.9 0
16.5 0.9 0
16.8 0.9 0
17.1 0.9 0
17.4 0.9 0
17.7 0.9 0
18 0.9 0
18.3 0.9 0
18.6 0.9 0
18.9 0.9 0
19.2 0.9 0
19.5 0.9 0
19.8 0.9 0
20.1 0.9 0
20.4 0.9 0
20.7 0.9 0
21 0.9 0
21.3 0.9 0
21.6 0.9 0
21.9 0.9 0
22.2 0.9 0
22.5 0.9 0
22.8 0.9 0
23.1 0.9 0
23.4 0.9 0
23.7 0.9 0
24 0.9 0
24.3 0.9 0
24.6 0.9 0
24.9 0.9 0
25.2 0.9 0
25.5 0.9 0
25.8 0.9 0
26.1 0.9 0
26.4 0.9 0
26.7 0.9 0
27 0.9 0
27.3 0.9 0
27.6 0.9 0
27.9 0.9 0
28.2 0.9 0
28.5 0.9 0
28.8 0.9 0
29.1 0.9 0
29.4 0.9 0
29.7 0.9 0
30 0.9 0
0 1 0
0.3 1 0
0.6 1 0
0.9 1 0
1.2 1 0
1.5 1 0
1.8 1 0
2.1 1 0
2.4 1 0
2.7 1 0
3 1 0
3.3 1 0
3.6 1 0
3.9 1 0
4.2 1 0
4.5 1 0
4.8 1 0
5.1 1 0
5.4 1 0
5.7 1 0
6 1 0
6.3 1 0
6.6 1 0
6.9 1 0
7.2 1 0
7.5 1 0
7.8 1 0
8.1 1 0
8.4 1 0
8.7 1 0
9 1 0
9.3 1 0
9.6 1 0
9.9 1 0
10.2 1 0
10.5 1 0
10.8 1 0
11.1 1 0
11.4 1 0
11.7 1 0
12 1 0
12.3 1 0
12.6 1 0
12.9 1 0
13.2 1 0
13.5 1 0
13.8 1 0
14.1 1 0
14.4 1 0
14.7 1 0
15 1 0
15.3 1 0
15.6 1 0
15.9 1 0
16.2 1 0
16.5 1 0
16.8 1 0
17.1 1 0
17.4 1 0
17.7 1 0
18 1 0
18.3 1 0
18.6 1 0
18.9 1 0
19.2 1 0
19.5 1 0
19.8 1 0
20.1 1 0
20.4 1 0
20.7 1 0
21 1 0
21.3 1 0
21.6 1 0
21.9 1 0
22.2 1 0
22.5 1 0
22.8 1 0
23.1 1 0
23.4 1 0
23.7 1 0
24 1 0
24.3 1 0
24.6 1 0
24.9 1 0
25.2 1 0
25.5 1 0
25.8 1 0
26.1 1 0
26.4 1 0
26.7 1 0
27 1 0
27.3 1 0
27.6 1 0
27.9 1 0
28.2 1 0
28.5 1 0
28.8 1 0
29.1 1 0
29.4 1 0
29.7 1 0
30 1 0

POINT_DATA 1111

SCALARS phi double
LOOKUP_TABLE default
1
1
1
0.999994
0.999972
0.999915
0.999796
0.999583
0.999241
0.998737
0.998043
0.997137
0.996001
0.994626
0.993007
0.991142
0.989033
0.986688
0.984115
0.981323
0.978324
0.975132
0.97176
0.96822
0.964528
0.960697
0.95674
0.952671
0.948502
0.944245
0.939911
0.935512
0.931057
0.926557
0.922019
0.917453
0.912863
0.908257
0.903637
0.899003
0.894354
0.889683
0.884983
0.880239
0.875438
0.87056
0.865584
0.860488
0.855247
0.849838
0.844237
0.838419
0.832364
0.826052
0.819464
0.812587
0.805407
0.797916
0.790108
0.781979
0.773528
0.76476
0.755677
0.746289
0.736605
0.726636
0.716396
0.7059
0.695163
0.684202
0.673035
0.66168
0.650155
0.638479
0.62667
0.614746
0.602726
0.590626
0.578464
0.566256
0.554018
0.541764
0.529509
0.517266
0.505047
0.492865
0.48073
0.468653
0.456643
0.444709
0.432859
0.421099
0.409439
0.39788
0.38644
0.375087
0.363946
0.352612
0.342498
0.328693
0.328693
1
1
1
0.999994
0.999972
0.999915
0.999796
0.999583
0.999241
0.998737
0.998043
0.997137
0.996001
0.994626
0.993007
0.991142
0.989033
0.986688
0.984115
0.981323
0.978324
0.975132
0.97176
0.96822
0.964528
0.960697
0.95674
0.952671
0.948502
0.944245
0.939911
0.935512
0.931057
0.926557
0.922019
0.917453
0.912863
0.908257
0.903637
0.899003
0.894354
0.889683
0.884983
0.880239
0.875438
0.87056
0.865584
0.860488
0.855247
0.849838
0.844237
0.838419
0.832364
0.826052
0.819464
0.812587
0.805407
0.797916
0.790108
0.781979
0.773528
0.76476
0.755677
0.746289
0.736605
0.726636
0.716396
0.7059
0.695163
0.684202
0.673035
0.66168
0.650155
0.638479
0.62667
0.614746
0.602726
0.590626
0.578464
0.566256
0.554018
0.541764
0.529509
0.517266
0.505047
0.492865
0.48073
0.468653
0.456643
0.444709
0.432859
0.421099
0.409439
0.39788
0.38644
0.375087
0.363946
0.352612
0.342498
0.328693
0.328693
0.999997
1
0.999982
0.999903
0.99973
0.999422
0.998942
0.998257
0.99734
0.996174
0.994749
0.99306
0.99111
0.988905
0.986455
0.983773
0.98087
0.977762
0.974464
0.97099
0.967356
0.963575
0.959662
0.955631
0.951494
0.947265
0.942954
0.938574
0.934134
0.929643
0.925113
0.920549
0.915962
0.911357
0.906742
0.902122
0.897504
0.892892
0.888289
0.8837
0.879124
0.874563
0.870015
0.865475
0.860937
0.856393
0.851832
0.847243
0.84261
0.837917
0.833147
0.828282
0.823304
0.818194
0.812933
0.807505
0.801893
0.796082
0.790058
0.78381
0.777329
0.770606
0.763636
0.756415
0.748942
0.741217
0.733242
0.725022
0.716561
0.707867
0.698948
0.689814
0.680475
0.670943
0.661228
0.651345
0.641304
0.63112
0.620806
0.610374
0.599839
0.589212
0.578507
0.567736
0.55691
0.546042
0.535142
0.524222
0.51329
0.502358
0.491433
0.480525
0.469642
0.458788
0.447983
0.437189
0.426563
0.415609
0.405986
0.392262
0.392262
1
0.999999
0.99946
0.998318
0.996569
0.994237
0.991359
0.987986
0.984174
0.979985
0.975479
0.970715
0.965744
0.960613
0.955362
0.950025
0.944629
0.9392
0.933756
0.928313
0.922885
0.917483
0.912115
0.906789
0.901509
0.896282
0.891109
0.885995
0.880941
0.875948
0.871018
0.866152
0.861349
0.856612
0.851938
0.847329
0.842784
0.838303
0.833886
0.829531
0.825238
0.821005
0.816831
0.812713
0.808649
0.804634
0.800665
0.796734
0.792836
0.788963
0.785106
0.781255
0.777399
0.773527
0.769627
0.765686
0.761691
0.757629
0.753488
0.749255
0.744917
0.740463
0.735882
0.731165
0.726301
0.721282
0.716103
0.710756
0.705238
0.699544
0.693673
0.687622
0.681392
0.674983
0.668397
0.661636
0.654705
0.647605
0.640344
0.632925
0.625355
0.617639
0.609784
0.601797
0.593685
0.585455
0.577113
0.568668
0.560125
0.551493
0.542779
0.533987
0.525128
0.516202
0.507231
0.498171
0.489187
0.479781
0.471555
0.45946
0.45946
1.00152
0.998478
0.989845
0.978523
0.966041
0.953192
0.940393
0.927875
0.915766
0.904141
0.893035
0.882463
0.87242
0.862891
0.853856
0.845287
0.837157
0.829439
0.822103
0.815125
0.808478
0.80214
0.796087
0.790301
0.784762
0.779454
0.77436
0.769467
0.76476
0.760229
0.755861
0.751646
0.747575
0.74364
0.739832
0.736144
0.732569
0.729101
0.725735
0.722465
0.719286
0.716193
0.713182
0.710249
0.70739
0.704601
0.701877
0.699215
0.69661
0.694058
0.691553
0.689091
0.686666
0.684272
0.681901
0.679549
0.677206
0.674865
0.672519
0.670159
0.667777
0.665363
0.66291
0.660407
0.657848
0.655222
0.652523
0.649741
0.646869
0.643899
0.640826
0.637642
0.634341
0.630918
0.627369
0.623688
0.619872
0.615918
0.611823
0.607585
0.603203
0.598674
0.593999
0.589177
0.584208
0.579092
0.573831
0.568425
0.562875
0.557184
0.551353
0.545385
0.539281
0.533041
0.526681
0.520159
0.513615
0.50663
0.500511
0.49123
0.49123
1.04956
0.950436
0.872951
0.815234
0.771992
0.739004
0.713323
0.692935
0.676455
0.662919
0.651641
0.642125
0.634005
0.627008
0.620923
0.61559
0.61088
0.606694
0.60295
0.599584
0.596543
0.593782
0.591265
0.588964
0.586851
0.584905
0.583109
0.581447
0.579906
0.578473
0.577139
0.575895
0.574733
0.573646
0.572629
0.571676
0.570781
0.569941
0.569152
0.56841
0.567712
0.567055
0.566436
0.565852
0.565302
0.564783
0.564293
0.56383
0.563391
0.562976
0.562581
0.562205
0.561845
0.561499
0.561164
0.560837
0.560516
0.560196
0.559875
0.559548
0.559212
0.558861
0.558491
0.558096
0.557673
0.557215
0.556716
0.55617
0.555572
0.554915
0.554193
0.5534
0.552529
0.551574
0.550529
0.549387
0.548142
0.546788
0.545319
0.54373
0.542015
0.540168
0.538184
0.53606
0.533789
0.531368
0.528792
0.526058
0.523162
0.520102
0.516873
0.513474
0.509904
0.506156
0.50224
0.498121
0.493904
0.489266
0.485178
0.478709
0.478709
-0.0440411
0.0440411
0.104658
0.147826
0.179978
0.204969
0.225119
0.241852
0.256065
0.268346
0.279103
0.288632
0.297153
0.30484
0.31183
0.318232
0.324136
0.329615
0.334729
0.339527
0.344051
0.348335
0.352408
0.356294
0.360014
0.363586
0.367024
0.370342
0.373551
0.37666
0.379679
0.382613
0.385471
0.388257
0.390976
0.393633
0.396232
0.398777
0.401269
0.403713
0.40611
0.408463
0.410773
0.413043
0.415274
0.417467
0.419623
0.421745
0.423832
0.425886
0.427906
0.429895
0.431851
0.433776
0.435669
0.437529
0.439358
0.441153
0.442914
0.44464
0.446329
0.447978
0.449587
0.451152
0.452671
0.45414
0.455555
0.456913
0.458208
0.459437
0.460595
0.461675
0.462672
0.463581
0.464395
0.465107
0.465712
0.466202
0.466571
0.466812
0.466918
0.466881
0.466696
0.466355
0.465852
0.46518
0.464334
0.463307
0.462093
0.460687
0.459085
0.457281
0.455272
0.453051
0.450625
0.447961
0.445143
0.441915
0.439035
0.434239
0.434239
-0.00135393
0.00135393
0.00757106
0.0154113
0.0241244
0.0333479
0.0428735
0.0525556
0.0622788
0.07195
0.0814968
0.0908662
0.100022
0.108944
0.11762
0.126049
0.134233
0.142179
0.149896
0.157395
0.164686
0.171781
0.178688
0.185419
0.191982
0.198387
0.204641
0.210752
0.216726
0.222571
0.22829
0.23389
0.239375
0.24475
0.250018
0.255184
0.26025
0.26522
0.270097
0.274883
0.27958
0.284192
0.288721
0.293167
0.297535
0.301824
0.306038
0.310177
0.314243
0.318237
0.32216
0.326014
0.329799
0.333516
0.337165
0.340746
0.344258
0.347702
0.351077
0.35438
0.357612
0.360769
0.363849
0.366849
0.369767
0.372599
0.375339
0.377985
0.380531
0.382972
0.385301
0.387514
0.389604
0.391564
0.393388
0.395068
0.396597
0.397968
0.399175
0.400208
0.401062
0.40173
0.402203
0.402475
0.402541
0.402393
0.402026
0.401435
0.400614
0.399559
0.398266
0.396732
0.394955
0.39293
0.390663
0.388128
0.385406
0.382249
0.379407
0.374636
0.374636
-1.12304e-05
1.12304e-05
0.000371135
0.00113545
0.00236809
0.00411785
0.00641416
0.00926464
0.0126562
0.0165593
0.0209329
0.0257304
0.0309028
0.036402
0.0421821
0.0482008
0.0544193
0.0608023
0.0673182
0.0739388
0.0806389
0.087396
0.0941902
0.101004
0.107821
0.114629
0.121414
0.128167
0.134878
0.141539
0.148144
0.154686
0.16116
0.167561
0.173887
0.180134
0.186299
0.192382
0.198379
0.20429
0.210114
0.215851
0.221499
0.22706
0.232533
0.237917
0.243213
0.248422
0.253542
0.258575
0.263519
0.268375
0.273141
0.277817
0.282401
0.286891
0.291286
0.295582
0.299776
0.303866
0.307847
0.311715
0.315464
0.319091
0.322588
0.32595
0.329171
0.332244
0.335161
0.337916
0.340501
0.342908
0.34513
0.34716
0.348988
0.350609
0.352015
0.353198
0.354151
0.354868
0.355344
0.355571
0.355546
0.355262
0.354718
0.353908
0.35283
0.351483
0.349865
0.347975
0.345814
0.343383
0.340683
0.337717
0.334494
0.330993
0.327302
0.323162
0.319415
0.313445
0.313445
1.70138e-06
-1.70138e-06
1.49765e-05
9.33843e-05
0.000299334
0.000718214
0.00144362
0.00256259
0.00414307
0.0062276
0.00883328
0.0119559
0.0155752
0.0196605
0.0241746
0.0290772
0.0343265
0.0398817
0.0457028
0.0517522
0.0579944
0.0643967
0.0709289
0.0775635
0.0842757
0.0910431
0.0978456
0.104665
0.111487
0.118295
0.125079
0.131828
0.138532
0.145183
0.151774
0.1583
0.164755
0.171135
0.177437
0.183658
0.189795
0.195846
0.201811
0.207686
0.213472
0.219167
0.22477
0.230279
0.235694
0.241013
0.246233
0.251352
0.256368
0.261277
0.266076
0.27076
0.275325
0.279765
0.284076
0.28825
0.292281
0.296162
0.299885
0.303444
0.306829
0.310034
0.313048
0.315864
0.318473
0.320867
0.323038
0.324976
0.326675
0.328126
0.329323
0.330258
0.330926
0.33132
0.331435
0.331268
0.330814
0.330071
0.329036
0.327709
0.326089
0.324176
0.321972
0.31948
0.316702
0.313642
0.310307
0.3067
0.30283
0.298703
0.294332
0.289705
0.284905
0.279697
0.274908
0.267803
0.267803
1.70138e-06
-1.70138e-06
1.49765e-05
9.33843e-05
0.000299334
0.000718214
0.00144362
0.00256259
0.00414307
0.0062276
0.00883328
0.0119559
0.0155752
0.0196605
0.0241746
0.0290772
0.0343265
0.0398817
0.0457028
0.0517522
0.0579944
0.0643967
0.0709289
0.0775635
0.0842757
0.0910431
0.0978456
0.104665
0.111487
0.118295
0.125079
0.131828
0.138532
0.145183
0.151774
0.1583
0.164755
0.171135
0.177437
0.183658
0.189795
0.195846
0.201811
0.207686
0.213472
0.219167
0.22477
0.230279
0.235694
0.241013
0.246233
0.251352
0.256368
0.261277
0.266076
0.27076
0.275325
0.279765
0.284076
0.28825
0.292281
0.296162
0.299885
0.303444
0.306829
0.310034
0.313048
0.315864
0.318473
0.320867
0.323038
0.324976
0.326675
0.328126
0.329323
0.330258
0.330926
0.33132
0.331435
0.331268
0.330814
0.330071
0.329036
0.327709
0.326089
0.324176
0.321972
0.31948
0.316702
0.313642
0.310307
0.3067
0.30283
0.298703
0.294332
0.289705
0.284905
0.279697
0.274908
0.267803
0.267803
