# vtk DataFile Version 2.0
FlowField
ASCII
DATASET STRUCTURED_GRID
DIMENSIONS 102 1 12 
POINTS 1224 double
0 0 0
0.4 0 0
0.8 0 0
1.2 0 0
1.6 0 0
2 0 0
2.4 0 0
2.8 0 0
3.2 0 0
3.6 0 0
4 0 0
4.4 0 0
4.8 0 0
5.2 0 0
5.6 0 0
6 0 0
6.4 0 0
6.8 0 0
7.2 0 0
7.6 0 0
8 0 0
8.4 0 0
8.8 0 0
9.2 0 0
9.6 0 0
10 0 0
10.4 0 0
10.8 0 0
11.2 0 0
11.6 0 0
12 0 0
12.4 0 0
12.8 0 0
13.2 0 0
13.6 0 0
14 0 0
14.4 0 0
14.8 0 0
15.2 0 0
15.6 0 0
16 0 0
16.4 0 0
16.8 0 0
17.2 0 0
17.6 0 0
18 0 0
18.4 0 0
18.8 0 0
19.2 0 0
19.6 0 0
20 0 0
20.4 0 0
20.8 0 0
21.2 0 0
21.6 0 0
22 0 0
22.4 0 0
22.8 0 0
23.2 0 0
23.6 0 0
24 0 0
24.4 0 0
24.8 0 0
25.2 0 0
25.6 0 0
26 0 0
26.4 0 0
26.8 0 0
27.2 0 0
27.6 0 0
28 0 0
28.4 0 0
28.8 0 0
29.2 0 0
29.6 0 0
30 0 0
30.4 0 0
30.8 0 0
31.2 0 0
31.6 0 0
32 0 0
32.4 0 0
32.8 0 0
33.2 0 0
33.6 0 0
34 0 0
34.4 0 0
34.8 0 0
35.2 0 0
35.6 0 0
36 0 0
36.4 0 0
36.8 0 0
37.2 0 0
37.6 0 0
38 0 0
38.4 0 0
38.8 0 0
39.2 0 0
39.6 0 0
40 0 0
40.4 0 0
0 0.1 0
0.4 0.1 0
0.8 0.1 0
1.2 0.1 0
1.6 0.1 0
2 0.1 0
2.4 0.1 0
2.8 0.1 0
3.2 0.1 0
3.6 0.1 0
4 0.1 0
4.4 0.1 0
4.8 0.1 0
5.2 0.1 0
5.6 0.1 0
6 0.1 0
6.4 0.1 0
6.8 0.1 0
7.2 0.1 0
7.6 0.1 0
8 0.1 0
8.4 0.1 0
8.8 0.1 0
9.2 0.1 0
9.6 0.1 0
10 0.1 0
10.4 0.1 0
10.8 0.1 0
11.2 0.1 0
11.6 0.1 0
12 0.1 0
12.4 0.1 0
12.8 0.1 0
13.2 0.1 0
13.6 0.1 0
14 0.1 0
14.4 0.1 0
14.8 0.1 0
15.2 0.1 0
15.6 0.1 0
16 0.1 0
16.4 0.1 0
16.8 0.1 0
17.2 0.1 0
17.6 0.1 0
18 0.1 0
18.4 0.1 0
18.8 0.1 0
19.2 0.1 0
19.6 0.1 0
20 0.1 0
20.4 0.1 0
20.8 0.1 0
21.2 0.1 0
21.6 0.1 0
22 0.1 0
22.4 0.1 0
22.8 0.1 0
23.2 0.1 0
23.6 0.1 0
24 0.1 0
24.4 0.1 0
24.8 0.1 0
25.2 0.1 0
25.6 0.1 0
26 0.1 0
26.4 0.1 0
26.8 0.1 0
27.2 0.1 0
27.6 0.1 0
28 0.1 0
28.4 0.1 0
28.8 0.1 0
29.2 0.1 0
29.6 0.1 0
30 0.1 0
30.4 0.1 0
30.8 0.1 0
31.2 0.1 0
31.6 0.1 0
32 0.1 0
32.4 0.1 0
32.8 0.1 0
33.2 0.1 0
33.6 0.1 0
34 0.1 0
34.4 0.1 0
34.8 0.1 0
35.2 0.1 0
35.6 0.1 0
36 0.1 0
36.4 0.1 0
36.8 0.1 0
37.2 0.1 0
37.6 0.1 0
38 0.1 0
38.4 0.1 0
38.8 0.1 0
39.2 0.1 0
39.6 0.1 0
40 0.1 0
40.4 0.1 0
0 0.2 0
0.4 0.2 0
0.8 0.2 0
1.2 0.2 0
1.6 0.2 0
2 0.2 0
2.4 0.2 0
2.8 0.2 0
3.2 0.2 0
3.6 0.2 0
4 0.2 0
4.4 0.2 0
4.8 0.2 0
5.2 0.2 0
5.6 0.2 0
6 0.2 0
6.4 0.2 0
6.8 0.2 0
7.2 0.2 0
7.6 0.2 0
8 0.2 0
8.4 0.2 0
8.8 0.2 0
9.2 0.2 0
9.6 0.2 0
10 0.2 0
10.4 0.2 0
10.8 0.2 0
11.2 0.2 0
11.6 0.2 0
12 0.2 0
12.4 0.2 0
12.8 0.2 0
13.2 0.2 0
13.6 0.2 0
14 0.2 0
14.4 0.2 0
14.8 0.2 0
15.2 0.2 0
15.6 0.2 0
16 0.2 0
16.4 0.2 0
16.8 0.2 0
17.2 0.2 0
17.6 0.2 0
18 0.2 0
18.4 0.2 0
18.8 0.2 0
19.2 0.2 0
19.6 0.2 0
20 0.2 0
20.4 0.2 0
20.8 0.2 0
21.2 0.2 0
21.6 0.2 0
22 0.2 0
22.4 0.2 0
22.8 0.2 0
23.2 0.2 0
23.6 0.2 0
24 0.2 0
24.4 0.2 0
24.8 0.2 0
25.2 0.2 0
25.6 0.2 0
26 0.2 0
26.4 0.2 0
26.8 0.2 0
27.2 0.2 0
27.6 0.2 0
28 0.2 0
28.4 0.2 0
28.8 0.2 0
29.2 0.2 0
29.6 0.2 0
30 0.2 0
30.4 0.2 0
30.8 0.2 0
31.2 0.2 0
31.6 0.2 0
32 0.2 0
32.4 0.2 0
32.8 0.2 0
33.2 0.2 0
33.6 0.2 0
34 0.2 0
34.4 0.2 0
34.8 0.2 0
35.2 0.2 0
35.6 0.2 0
36 0.2 0
36.4 0.2 0
36.8 0.2 0
37.2 0.2 0
37.6 0.2 0
38 0.2 0
38.4 0.2 0
38.8 0.2 0
39.2 0.2 0
39.6 0.2 0
40 0.2 0
40.4 0.2 0
0 0.3 0
0.4 0.3 0
0.8 0.3 0
1.2 0.3 0
1.6 0.3 0
2 0.3 0
2.4 0.3 0
2.8 0.3 0
3.2 0.3 0
3.6 0.3 0
4 0.3 0
4.4 0.3 0
4.8 0.3 0
5.2 0.3 0
5.6 0.3 0
6 0.3 0
6.4 0.3 0
6.8 0.3 0
7.2 0.3 0
7.6 0.3 0
8 0.3 0
8.4 0.3 0
8.8 0.3 0
9.2 0.3 0
9.6 0.3 0
10 0.3 0
10.4 0.3 0
10.8 0.3 0
11.2 0.3 0
11.6 0.3 0
12 0.3 0
12.4 0.3 0
12.8 0.3 0
13.2 0.3 0
13.6 0.3 0
14 0.3 0
14.4 0.3 0
14.8 0.3 0
15.2 0.3 0
15.6 0.3 0
16 0.3 0
16.4 0.3 0
16.8 0.3 0
17.2 0.3 0
17.6 0.3 0
18 0.3 0
18.4 0.3 0
18.8 0.3 0
19.2 0.3 0
19.6 0.3 0
20 0.3 0
20.4 0.3 0
20.8 0.3 0
21.2 0.3 0
21.6 0.3 0
22 0.3 0
22.4 0.3 0
22.8 0.3 0
23.2 0.3 0
23.6 0.3 0
24 0.3 0
24.4 0.3 0
24.8 0.3 0
25.2 0.3 0
25.6 0.3 0
26 0.3 0
26.4 0.3 0
26.8 0.3 0
27.2 0.3 0
27.6 0.3 0
28 0.3 0
28.4 0.3 0
28.8 0.3 0
29.2 0.3 0
29.6 0.3 0
30 0.3 0
30.4 0.3 0
30.8 0.3 0
31.2 0.3 0
31.6 0.3 0
32 0.3 0
32.4 0.3 0
32.8 0.3 0
33.2 0.3 0
33.6 0.3 0
34 0.3 0
34.4 0.3 0
34.8 0.3 0
35.2 0.3 0
35.6 0.3 0
36 0.3 0
36.4 0.3 0
36.8 0.3 0
37.2 0.3 0
37.6 0.3 0
38 0.3 0
38.4 0.3 0
38.8 0.3 0
39.2 0.3 0
39.6 0.3 0
40 0.3 0
40.4 0.3 0
0 0.4 0
0.4 0.4 0
0.8 0.4 0
1.2 0.4 0
1.6 0.4 0
2 0.4 0
2.4 0.4 0
2.8 0.4 0
3.2 0.4 0
3.6 0.4 0
4 0.4 0
4.4 0.4 0
4.8 0.4 0
5.2 0.4 0
5.6 0.4 0
6 0.4 0
6.4 0.4 0
6.8 0.4 0
7.2 0.4 0
7.6 0.4 0
8 0.4 0
8.4 0.4 0
8.8 0.4 0
9.2 0.4 0
9.6 0.4 0
10 0.4 0
10.4 0.4 0
10.8 0.4 0
11.2 0.4 0
11.6 0.4 0
12 0.4 0
12.4 0.4 0
12.8 0.4 0
13.2 0.4 0
13.6 0.4 0
14 0.4 0
14.4 0.4 0
14.8 0.4 0
15.2 0.4 0
15.6 0.4 0
16 0.4 0
16.4 0.4 0
16.8 0.4 0
17.2 0.4 0
17.6 0.4 0
18 0.4 0
18.4 0.4 0
18.8 0.4 0
19.2 0.4 0
19.6 0.4 0
20 0.4 0
20.4 0.4 0
20.8 0.4 0
21.2 0.4 0
21.6 0.4 0
22 0.4 0
22.4 0.4 0
22.8 0.4 0
23.2 0.4 0
23.6 0.4 0
24 0.4 0
24.4 0.4 0
24.8 0.4 0
25.2 0.4 0
25.6 0.4 0
26 0.4 0
26.4 0.4 0
26.8 0.4 0
27.2 0.4 0
27.6 0.4 0
28 0.4 0
28.4 0.4 0
28.8 0.4 0
29.2 0.4 0
29.6 0.4 0
30 0.4 0
30.4 0.4 0
30.8 0.4 0
31.2 0.4 0
31.6 0.4 0
32 0.4 0
32.4 0.4 0
32.8 0.4 0
33.2 0.4 0
33.6 0.4 0
34 0.4 0
34.4 0.4 0
34.8 0.4 0
35.2 0.4 0
35.6 0.4 0
36 0.4 0
36.4 0.4 0
36.8 0.4 0
37.2 0.4 0
37.6 0.4 0
38 0.4 0
38.4 0.4 0
38.8 0.4 0
39.2 0.4 0
39.6 0.4 0
40 0.4 0
40.4 0.4 0
0 0.5 0
0.4 0.5 0
0.8 0.5 0
1.2 0.5 0
1.6 0.5 0
2 0.5 0
2.4 0.5 0
2.8 0.5 0
3.2 0.5 0
3.6 0.5 0
4 0.5 0
4.4 0.5 0
4.8 0.5 0
5.2 0.5 0
5.6 0.5 0
6 0.5 0
6.4 0.5 0
6.8 0.5 0
7.2 0.5 0
7.6 0.5 0
8 0.5 0
8.4 0.5 0
8.8 0.5 0
9.2 0.5 0
9.6 0.5 0
10 0.5 0
10.4 0.5 0
10.8 0.5 0
11.2 0.5 0
11.6 0.5 0
12 0.5 0
12.4 0.5 0
12.8 0.5 0
13.2 0.5 0
13.6 0.5 0
14 0.5 0
14.4 0.5 0
14.8 0.5 0
15.2 0.5 0
15.6 0.5 0
16 0.5 0
16.4 0.5 0
16.8 0.5 0
17.2 0.5 0
17.6 0.5 0
18 0.5 0
18.4 0.5 0
18.8 0.5 0
19.2 0.5 0
19.6 0.5 0
20 0.5 0
20.4 0.5 0
20.8 0.5 0
21.2 0.5 0
21.6 0.5 0
22 0.5 0
22.4 0.5 0
22.8 0.5 0
23.2 0.5 0
23.6 0.5 0
24 0.5 0
24.4 0.5 0
24.8 0.5 0
25.2 0.5 0
25.6 0.5 0
26 0.5 0
26.4 0.5 0
26.8 0.5 0
27.2 0.5 0
27.6 0.5 0
28 0.5 0
28.4 0.5 0
28.8 0.5 0
29.2 0.5 0
29.6 0.5 0
30 0.5 0
30.4 0.5 0
30.8 0.5 0
31.2 0.5 0
31.6 0.5 0
32 0.5 0
32.4 0.5 0
32.8 0.5 0
33.2 0.5 0
33.6 0.5 0
34 0.5 0
34.4 0.5 0
34.8 0.5 0
35.2 0.5 0
35.6 0.5 0
36 0.5 0
36.4 0.5 0
36.8 0.5 0
37.2 0.5 0
37.6 0.5 0
38 0.5 0
38.4 0.5 0
38.8 0.5 0
39.2 0.5 0
39.6 0.5 0
40 0.5 0
40.4 0.5 0
0 0.6 0
0.4 0.6 0
0.8 0.6 0
1.2 0.6 0
1.6 0.6 0
2 0.6 0
2.4 0.6 0
2.8 0.6 0
3.2 0.6 0
3.6 0.6 0
4 0.6 0
4.4 0.6 0
4.8 0.6 0
5.2 0.6 0
5.6 0.6 0
6 0.6 0
6.4 0.6 0
6.8 0.6 0
7.2 0.6 0
7.6 0.6 0
8 0.6 0
8.4 0.6 0
8.8 0.6 0
9.2 0.6 0
9.6 0.6 0
10 0.6 0
10.4 0.6 0
10.8 0.6 0
11.2 0.6 0
11.6 0.6 0
12 0.6 0
12.4 0.6 0
12.8 0.6 0
13.2 0.6 0
13.6 0.6 0
14 0.6 0
14.4 0.6 0
14.8 0.6 0
15.2 0.6 0
15.6 0.6 0
16 0.6 0
16.4 0.6 0
16.8 0.6 0
17.2 0.6 0
17.6 0.6 0
18 0.6 0
18.4 0.6 0
18.8 0.6 0
19.2 0.6 0
19.6 0.6 0
20 0.6 0
20.4 0.6 0
20.8 0.6 0
21.2 0.6 0
21.6 0.6 0
22 0.6 0
22.4 0.6 0
22.8 0.6 0
23.2 0.6 0
23.6 0.6 0
24 0.6 0
24.4 0.6 0
24.8 0.6 0
25.2 0.6 0
25.6 0.6 0
26 0.6 0
26.4 0.6 0
26.8 0.6 0
27.2 0.6 0
27.6 0.6 0
28 0.6 0
28.4 0.6 0
28.8 0.6 0
29.2 0.6 0
29.6 0.6 0
30 0.6 0
30.4 0.6 0
30.8 0.6 0
31.2 0.6 0
31.6 0.6 0
32 0.6 0
32.4 0.6 0
32.8 0.6 0
33.2 0.6 0
33.6 0.6 0
34 0.6 0
34.4 0.6 0
34.8 0.6 0
35.2 0.6 0
35.6 0.6 0
36 0.6 0
36.4 0.6 0
36.8 0.6 0
37.2 0.6 0
37.6 0.6 0
38 0.6 0
38.4 0.6 0
38.8 0.6 0
39.2 0.6 0
39.6 0.6 0
40 0.6 0
40.4 0.6 0
0 0.7 0
0.4 0.7 0
0.8 0.7 0
1.2 0.7 0
1.6 0.7 0
2 0.7 0
2.4 0.7 0
2.8 0.7 0
3.2 0.7 0
3.6 0.7 0
4 0.7 0
4.4 0.7 0
4.8 0.7 0
5.2 0.7 0
5.6 0.7 0
6 0.7 0
6.4 0.7 0
6.8 0.7 0
7.2 0.7 0
7.6 0.7 0
8 0.7 0
8.4 0.7 0
8.8 0.7 0
9.2 0.7 0
9.6 0.7 0
10 0.7 0
10.4 0.7 0
10.8 0.7 0
11.2 0.7 0
11.6 0.7 0
12 0.7 0
12.4 0.7 0
12.8 0.7 0
13.2 0.7 0
13.6 0.7 0
14 0.7 0
14.4 0.7 0
14.8 0.7 0
15.2 0.7 0
15.6 0.7 0
16 0.7 0
16.4 0.7 0
16.8 0.7 0
17.2 0.7 0
17.6 0.7 0
18 0.7 0
18.4 0.7 0
18.8 0.7 0
19.2 0.7 0
19.6 0.7 0
20 0.7 0
20.4 0.7 0
20.8 0.7 0
21.2 0.7 0
21.6 0.7 0
22 0.7 0
22.4 0.7 0
22.8 0.7 0
23.2 0.7 0
23.6 0.7 0
24 0.7 0
24.4 0.7 0
24.8 0.7 0
25.2 0.7 0
25.6 0.7 0
26 0.7 0
26.4 0.7 0
26.8 0.7 0
27.2 0.7 0
27.6 0.7 0
28 0.7 0
28.4 0.7 0
28.8 0.7 0
29.2 0.7 0
29.6 0.7 0
30 0.7 0
30.4 0.7 0
30.8 0.7 0
31.2 0.7 0
31.6 0.7 0
32 0.7 0
32.4 0.7 0
32.8 0.7 0
33.2 0.7 0
33.6 0.7 0
34 0.7 0
34.4 0.7 0
34.8 0.7 0
35.2 0.7 0
35.6 0.7 0
36 0.7 0
36.4 0.7 0
36.8 0.7 0
37.2 0.7 0
37.6 0.7 0
38 0.7 0
38.4 0.7 0
38.8 0.7 0
39.2 0.7 0
39.6 0.7 0
40 0.7 0
40.4 0.7 0
0 0.8 0
0.4 0.8 0
0.8 0.8 0
1.2 0.8 0
1.6 0.8 0
2 0.8 0
2.4 0.8 0
2.8 0.8 0
3.2 0.8 0
3.6 0.8 0
4 0.8 0
4.4 0.8 0
4.8 0.8 0
5.2 0.8 0
5.6 0.8 0
6 0.8 0
6.4 0.8 0
6.8 0.8 0
7.2 0.8 0
7.6 0.8 0
8 0.8 0
8.4 0.8 0
8.8 0.8 0
9.2 0.8 0
9.6 0.8 0
10 0.8 0
10.4 0.8 0
10.8 0.8 0
11.2 0.8 0
11.6 0.8 0
12 0.8 0
12.4 0.8 0
12.8 0.8 0
13.2 0.8 0
13.6 0.8 0
14 0.8 0
14.4 0.8 0
14.8 0.8 0
15.2 0.8 0
15.6 0.8 0
16 0.8 0
16.4 0.8 0
16.8 0.8 0
17.2 0.8 0
17.6 0.8 0
18 0.8 0
18.4 0.8 0
18.8 0.8 0
19.2 0.8 0
19.6 0.8 0
20 0.8 0
20.4 0.8 0
20.8 0.8 0
21.2 0.8 0
21.6 0.8 0
22 0.8 0
22.4 0.8 0
22.8 0.8 0
23.2 0.8 0
23.6 0.8 0
24 0.8 0
24.4 0.8 0
24.8 0.8 0
25.2 0.8 0
25.6 0.8 0
26 0.8 0
26.4 0.8 0
26.8 0.8 0
27.2 0.8 0
27.6 0.8 0
28 0.8 0
28.4 0.8 0
28.8 0.8 0
29.2 0.8 0
29.6 0.8 0
30 0.8 0
30.4 0.8 0
30.8 0.8 0
31.2 0.8 0
31.6 0.8 0
32 0.8 0
32.4 0.8 0
32.8 0.8 0
33.2 0.8 0
33.6 0.8 0
34 0.8 0
34.4 0.8 0
34.8 0.8 0
35.2 0.8 0
35.6 0.8 0
36 0.8 0
36.4 0.8 0
36.8 0.8 0
37.2 0.8 0
37.6 0.8 0
38 0.8 0
38.4 0.8 0
38.8 0.8 0
39.2 0.8 0
39.6 0.8 0
40 0.8 0
40.4 0.8 0
0 0.9 0
0.4 0.9 0
0.8 0.9 0
1.2 0.9 0
1.6 0.9 0
2 0.9 0
2.4 0.9 0
2.8 0.9 0
3.2 0.9 0
3.6 0.9 0
4 0.9 0
4.4 0.9 0
4.8 0.9 0
5.2 0.9 0
5.6 0.9 0
6 0.9 0
6.4 0.9 0
6.8 0.9 0
7.2 0.9 0
7.6 0.9 0
8 0.9 0
8.4 0.9 0
8.8 0.9 0
9.2 0.9 0
9.6 0.9 0
10 0.9 0
10.4 0.9 0
10.8 0.9 0
11.2 0.9 0
11.6 0.9 0
12 0.9 0
12.4 0.9 0
12.8 0.9 0
13.2 0.9 0
13.6 0.9 0
14 0.9 0
14.4 0.9 0
14.8 0.9 0
15.2 0.9 0
15.6 0.9 0
16 0.9 0
16.4 0.9 0
16.8 0.9 0
17.2 0.9 0
17.6 0.9 0
18 0.9 0
18.4 0.9 0
18.8 0.9 0
19.2 0.9 0
19.6 0.9 0
20 0.9 0
20.4 0.9 0
20.8 0.9 0
21.2 0.9 0
21.6 0.9 0
22 0.9 0
22.4 0.9 0
22.8 0.9 0
23.2 0.9 0
23.6 0.9 0
24 0.9 0
24.4 0.9 0
24.8 0.9 0
25.2 0.9 0
25.6 0.9 0
26 0.9 0
26.4 0.9 0
26.8 0.9 0
27.2 0.9 0
27.6 0.9 0
28 0.9 0
28.4 0.9 0
28.8 0.9 0
29.2 0.9 0
29.6 0.9 0
30 0.9 0
30.4 0.9 0
30.8 0.9 0
31.2 0.9 0
31.6 0.9 0
32 0.9 0
32.4 0.9 0
32.8 0.9 0
33.2 0.9 0
33.6 0.9 0
34 0.9 0
34.4 0.9 0
34.8 0.9 0
35.2 0.9 0
35.6 0.9 0
36 0.9 0
36.4 0.9 0
36.8 0.9 0
37.2 0.9 0
37.6 0.9 0
38 0.9 0
38.4 0.9 0
38.8 0.9 0
39.2 0.9 0
39.6 0.9 0
40 0.9 0
40.4 0.9 0
0 1 0
0.4 1 0
0.8 1 0
1.2 1 0
1.6 1 0
2 1 0
2.4 1 0
2.8 1 0
3.2 1 0
3.6 1 0
4 1 0
4.4 1 0
4.8 1 0
5.2 1 0
5.6 1 0
6 1 0
6.4 1 0
6.8 1 0
7.2 1 0
7.6 1 0
8 1 0
8.4 1 0
8.8 1 0
9.2 1 0
9.6 1 0
10 1 0
10.4 1 0
10.8 1 0
11.2 1 0
11.6 1 0
12 1 0
12.4 1 0
12.8 1 0
13.2 1 0
13.6 1 0
14 1 0
14.4 1 0
14.8 1 0
15.2 1 0
15.6 1 0
16 1 0
16.4 1 0
16.8 1 0
17.2 1 0
17.6 1 0
18 1 0
18.4 1 0
18.8 1 0
19.2 1 0
19.6 1 0
20 1 0
20.4 1 0
20.8 1 0
21.2 1 0
21.6 1 0
22 1 0
22.4 1 0
22.8 1 0
23.2 1 0
23.6 1 0
24 1 0
24.4 1 0
24.8 1 0
25.2 1 0
25.6 1 0
26 1 0
26.4 1 0
26.8 1 0
27.2 1 0
27.6 1 0
28 1 0
28.4 1 0
28.8 1 0
29.2 1 0
29.6 1 0
30 1 0
30.4 1 0
30.8 1 0
31.2 1 0
31.6 1 0
32 1 0
32.4 1 0
32.8 1 0
33.2 1 0
33.6 1 0
34 1 0
34.4 1 0
34.8 1 0
35.2 1 0
35.6 1 0
36 1 0
36.4 1 0
36.8 1 0
37.2 1 0
37.6 1 0
38 1 0
38.4 1 0
38.8 1 0
39.2 1 0
39.6 1 0
40 1 0
40.4 1 0
0 1.1 0
0.4 1.1 0
0.8 1.1 0
1.2 1.1 0
1.6 1.1 0
2 1.1 0
2.4 1.1 0
2.8 1.1 0
3.2 1.1 0
3.6 1.1 0
4 1.1 0
4.4 1.1 0
4.8 1.1 0
5.2 1.1 0
5.6 1.1 0
6 1.1 0
6.4 1.1 0
6.8 1.1 0
7.2 1.1 0
7.6 1.1 0
8 1.1 0
8.4 1.1 0
8.8 1.1 0
9.2 1.1 0
9.6 1.1 0
10 1.1 0
10.4 1.1 0
10.8 1.1 0
11.2 1.1 0
11.6 1.1 0
12 1.1 0
12.4 1.1 0
12.8 1.1 0
13.2 1.1 0
13.6 1.1 0
14 1.1 0
14.4 1.1 0
14.8 1.1 0
15.2 1.1 0
15.6 1.1 0
16 1.1 0
16.4 1.1 0
16.8 1.1 0
17.2 1.1 0
17.6 1.1 0
18 1.1 0
18.4 1.1 0
18.8 1.1 0
19.2 1.1 0
19.6 1.1 0
20 1.1 0
20.4 1.1 0
20.8 1.1 0
21.2 1.1 0
21.6 1.1 0
22 1.1 0
22.4 1.1 0
22.8 1.1 0
23.2 1.1 0
23.6 1.1 0
24 1.1 0
24.4 1.1 0
24.8 1.1 0
25.2 1.1 0
25.6 1.1 0
26 1.1 0
26.4 1.1 0
26.8 1.1 0
27.2 1.1 0
27.6 1.1 0
28 1.1 0
28.4 1.1 0
28.8 1.1 0
29.2 1.1 0
29.6 1.1 0
30 1.1 0
30.4 1.1 0
30.8 1.1 0
31.2 1.1 0
31.6 1.1 0
32 1.1 0
32.4 1.1 0
32.8 1.1 0
33.2 1.1 0
33.6 1.1 0
34 1.1 0
34.4 1.1 0
34.8 1.1 0
35.2 1.1 0
35.6 1.1 0
36 1.1 0
36.4 1.1 0
36.8 1.1 0
37.2 1.1 0
37.6 1.1 0
38 1.1 0
38.4 1.1 0
38.8 1.1 0
39.2 1.1 0
39.6 1.1 0
40 1.1 0
40.4 1.1 0

POINT_DATA 1224

SCALARS p double
LOOKUP_TABLE default
12.5056
12.5056
11.7884
11.0618
10.4286
9.89788
9.45259
9.07037
8.73252
8.42599
8.14229
7.87592
7.6232
7.38149
7.14878
6.92348
6.70429
6.49014
6.28012
6.07348
5.86959
5.66792
5.46802
5.26953
5.07216
4.87564
4.67978
4.4844
4.28939
4.09464
3.90005
3.70557
3.51115
3.31674
3.12233
2.9279
2.73343
2.5389
2.34432
2.14968
1.95497
1.7602
1.56538
1.3705
1.17557
0.980604
0.785594
0.590547
0.395467
0.200359
0.00522491
-0.189933
-0.385111
-0.580309
-0.775523
-0.970753
-1.166
-1.36125
-1.55652
-1.75179
-1.94707
-2.14235
-2.33764
-2.53293
-2.72823
-2.92352
-3.11882
-3.31411
-3.50941
-3.7047
-3.9
-4.09529
-4.29058
-4.48587
-4.68116
-4.87645
-5.07174
-5.26703
-5.46232
-5.65761
-5.8529
-6.04819
-6.24348
-6.43876
-6.63405
-6.82934
-7.02463
-7.21992
-7.41521
-7.61049
-7.80578
-8.00108
-8.19638
-8.39175
-8.58726
-8.78378
-8.98241
-9.19518
-9.44116
-9.87502
-11.4509
11.4509
12.5056
12.5056
11.7884
11.0618
10.4286
9.89788
9.45259
9.07037
8.73252
8.42599
8.14229
7.87592
7.6232
7.38149
7.14878
6.92348
6.70429
6.49014
6.28012
6.07348
5.86959
5.66792
5.46802
5.26953
5.07216
4.87564
4.67978
4.4844
4.28939
4.09464
3.90005
3.70557
3.51115
3.31674
3.12233
2.9279
2.73343
2.5389
2.34432
2.14968
1.95497
1.7602
1.56538
1.3705
1.17557
0.980604
0.785594
0.590547
0.395467
0.200359
0.00522491
-0.189933
-0.385111
-0.580309
-0.775523
-0.970753
-1.166
-1.36125
-1.55652
-1.75179
-1.94707
-2.14235
-2.33764
-2.53293
-2.72823
-2.92352
-3.11882
-3.31411
-3.50941
-3.7047
-3.9
-4.09529
-4.29058
-4.48587
-4.68116
-4.87645
-5.07174
-5.26703
-5.46232
-5.65761
-5.8529
-6.04819
-6.24348
-6.43876
-6.63405
-6.82934
-7.02463
-7.21992
-7.41521
-7.61049
-7.80578
-8.00108
-8.19638
-8.39175
-8.58726
-8.78378
-8.98241
-9.19518
-9.44116
-9.87502
-11.4509
11.4509
12.1326
12.1326
11.5628
10.9462
10.383
9.89121
9.46435
9.08891
8.75207
8.44407
8.15808
7.88935
7.63446
7.39086
7.15654
6.92989
6.70958
6.49449
6.28369
6.07641
5.87198
5.66986
5.46959
5.2708
5.07317
4.87645
4.68041
4.4849
4.28978
4.09493
3.90027
3.70573
3.51126
3.31682
3.12238
2.92793
2.73344
2.5389
2.34431
2.14966
1.95494
1.76017
1.56535
1.37047
1.17554
0.980575
0.785565
0.590519
0.395441
0.200335
0.00520262
-0.189953
-0.385129
-0.580325
-0.775537
-0.970764
-1.16601
-1.36126
-1.55652
-1.75179
-1.94707
-2.14236
-2.33764
-2.53294
-2.72823
-2.92352
-3.11882
-3.31411
-3.50941
-3.7047
-3.9
-4.09529
-4.29058
-4.48587
-4.68116
-4.87645
-5.07174
-5.26703
-5.46232
-5.65761
-5.8529
-6.04819
-6.24348
-6.43876
-6.63405
-6.82934
-7.02463
-7.21992
-7.4152
-7.61049
-7.80578
-8.00107
-8.19636
-8.3917
-8.58705
-8.78297
-8.97934
-9.18306
-9.39775
-9.71991
-10.4285
10.4285
11.8367
11.8367
11.3471
10.8088
10.3072
9.85784
9.45716
9.09628
8.76659
8.46137
8.17571
7.90603
7.64962
7.40429
7.16824
6.93997
6.71819
6.50181
6.28988
6.08161
5.87635
5.67351
5.47264
5.27333
5.07526
4.87817
4.68183
4.48606
4.29072
4.09569
3.90088
3.70622
3.51164
3.31712
3.12262
2.92811
2.73358
2.539
2.34438
2.1497
1.95497
1.76019
1.56535
1.37046
1.17553
0.980556
0.785543
0.590496
0.395417
0.20031
0.00517851
-0.189976
-0.385151
-0.580345
-0.775556
-0.970781
-1.16602
-1.36127
-1.55653
-1.7518
-1.94708
-2.14236
-2.33765
-2.53294
-2.72823
-2.92353
-3.11882
-3.31411
-3.50941
-3.7047
-3.9
-4.09529
-4.29058
-4.48587
-4.68116
-4.87645
-5.07174
-5.26703
-5.46232
-5.65761
-5.8529
-6.04819
-6.24348
-6.43876
-6.63405
-6.82934
-7.02463
-7.21992
-7.4152
-7.61049
-7.80578
-8.00107
-8.19634
-8.39161
-8.58674
-8.78169
-8.97477
-9.1652
-9.32737
-9.48405
-9.05324
9.05324
11.6459
11.6459
11.2018
10.7095
10.2463
9.82578
9.44496
9.09692
8.775
8.47405
8.19037
7.9212
7.66437
7.4181
7.18086
6.95128
6.72819
6.51056
6.29747
6.08816
5.88196
5.6783
5.47671
5.27677
5.07817
4.88061
4.68386
4.48775
4.29212
4.09685
3.90183
3.70699
3.51228
3.31764
3.12304
2.92845
2.73384
2.53921
2.34454
2.14982
1.95506
1.76025
1.56539
1.37049
1.17554
0.98056
0.78554
0.590487
0.395404
0.200295
0.00516143
-0.189994
-0.38517
-0.580363
-0.775573
-0.970798
-1.16604
-1.36129
-1.55655
-1.75181
-1.94709
-2.14237
-2.33766
-2.53294
-2.72824
-2.92353
-3.11882
-3.31412
-3.50941
-3.7047
-3.9
-4.09529
-4.29058
-4.48587
-4.68116
-4.87645
-5.07174
-5.26703
-5.46232
-5.65761
-5.8529
-6.04819
-6.24348
-6.43876
-6.63405
-6.82934
-7.02463
-7.21992
-7.4152
-7.61049
-7.80578
-8.00106
-8.19632
-8.39153
-8.58645
-8.78058
-8.97038
-9.15004
-9.25816
-9.27826
-7.81486
7.81486
11.5529
11.5529
11.1304
10.66
10.2151
9.80856
9.43783
9.09671
8.77933
8.48119
8.19907
7.93057
7.67382
7.42723
7.18941
6.95913
6.73528
6.51688
6.30305
6.09305
5.88621
5.68197
5.47985
5.27946
5.08045
4.88254
4.68549
4.48912
4.29326
4.0978
3.90262
3.70764
3.51281
3.31807
3.12339
2.92873
2.73407
2.53939
2.34468
2.14993
1.95514
1.76031
1.56544
1.37052
1.17556
0.980572
0.785545
0.590488
0.395402
0.20029
0.00515388
-0.190003
-0.38518
-0.580374
-0.775584
-0.970809
-1.16605
-1.3613
-1.55655
-1.75182
-1.9471
-2.14238
-2.33766
-2.53295
-2.72824
-2.92353
-3.11882
-3.31412
-3.50941
-3.7047
-3.9
-4.09529
-4.29058
-4.48587
-4.68116
-4.87645
-5.07174
-5.26703
-5.46232
-5.65761
-5.8529
-6.04819
-6.24348
-6.43876
-6.63405
-6.82934
-7.02463
-7.21992
-7.4152
-7.61049
-7.80578
-8.00106
-8.19631
-8.39149
-8.58627
-8.77999
-8.96763
-9.14193
-9.21563
-9.16358
-7.09427
7.09427
11.5529
11.5529
11.1304
10.66
10.2151
9.80856
9.43783
9.09671
8.77933
8.48119
8.19907
7.93057
7.67382
7.42723
7.18941
6.95913
6.73528
6.51688
6.30305
6.09305
5.88621
5.68197
5.47985
5.27946
5.08045
4.88254
4.68549
4.48912
4.29326
4.0978
3.90262
3.70764
3.51281
3.31807
3.12339
2.92873
2.73407
2.53939
2.34468
2.14993
1.95514
1.76031
1.56544
1.37052
1.17556
0.980572
0.785546
0.590488
0.395402
0.20029
0.00515394
-0.190003
-0.38518
-0.580374
-0.775584
-0.970809
-1.16605
-1.3613
-1.55655
-1.75182
-1.9471
-2.14238
-2.33766
-2.53295
-2.72824
-2.92353
-3.11882
-3.31412
-3.50941
-3.7047
-3.9
-4.09529
-4.29058
-4.48587
-4.68116
-4.87645
-5.07174
-5.26703
-5.46232
-5.65761
-5.8529
-6.04819
-6.24348
-6.43876
-6.63405
-6.82934
-7.02463
-7.21992
-7.4152
-7.61049
-7.80578
-8.00106
-8.19631
-8.39149
-8.58627
-8.77999
-8.96763
-9.14193
-9.21563
-9.16358
-7.09427
7.09427
11.6459
11.6459
11.2018
10.7095
10.2463
9.82578
9.44496
9.09692
8.775
8.47405
8.19037
7.9212
7.66437
7.4181
7.18086
6.95128
6.72819
6.51056
6.29747
6.08816
5.88196
5.6783
5.47671
5.27677
5.07817
4.88061
4.68386
4.48775
4.29212
4.09685
3.90183
3.70699
3.51228
3.31764
3.12304
2.92845
2.73384
2.53921
2.34454
2.14982
1.95506
1.76025
1.56539
1.37049
1.17554
0.98056
0.78554
0.590487
0.395405
0.200295
0.00516158
-0.189994
-0.38517
-0.580363
-0.775573
-0.970798
-1.16604
-1.36129
-1.55655
-1.75181
-1.94709
-2.14237
-2.33766
-2.53294
-2.72824
-2.92353
-3.11882
-3.31412
-3.50941
-3.7047
-3.9
-4.09529
-4.29058
-4.48587
-4.68116
-4.87645
-5.07174
-5.26703
-5.46232
-5.65761
-5.8529
-6.04819
-6.24348
-6.43876
-6.63405
-6.82934
-7.02463
-7.21992
-7.4152
-7.61049
-7.80578
-8.00106
-8.19632
-8.39153
-8.58645
-8.78058
-8.97038
-9.15004
-9.25816
-9.27826
-7.81486
7.81486
11.8367
11.8367
11.3471
10.8088
10.3072
9.85784
9.45716
9.09628
8.76659
8.46137
8.17571
7.90603
7.64962
7.40429
7.16824
6.93997
6.71819
6.50181
6.28988
6.08161
5.87635
5.67351
5.47264
5.27333
5.07526
4.87817
4.68183
4.48606
4.29072
4.09569
3.90088
3.70622
3.51164
3.31712
3.12262
2.92811
2.73358
2.539
2.34438
2.1497
1.95497
1.76019
1.56535
1.37046
1.17553
0.980556
0.785544
0.590496
0.395417
0.200311
0.00517868
-0.189976
-0.385151
-0.580345
-0.775556
-0.970781
-1.16602
-1.36127
-1.55653
-1.7518
-1.94708
-2.14236
-2.33765
-2.53294
-2.72823
-2.92353
-3.11882
-3.31411
-3.50941
-3.7047
-3.9
-4.09529
-4.29058
-4.48587
-4.68116
-4.87645
-5.07174
-5.26703
-5.46232
-5.65761
-5.8529
-6.04819
-6.24348
-6.43876
-6.63405
-6.82934
-7.02463
-7.21992
-7.4152
-7.61049
-7.80578
-8.00107
-8.19634
-8.39161
-8.58674
-8.78169
-8.97477
-9.1652
-9.32737
-9.48405
-9.05325
9.05325
12.1326
12.1326
11.5628
10.9462
10.383
9.89121
9.46434
9.08891
8.75207
8.44407
8.15808
7.88935
7.63446
7.39086
7.15654
6.92989
6.70958
6.49449
6.28369
6.07641
5.87198
5.66986
5.46959
5.2708
5.07317
4.87645
4.68041
4.4849
4.28978
4.09493
3.90027
3.70573
3.51126
3.31682
3.12238
2.92793
2.73344
2.5389
2.34431
2.14966
1.95494
1.76017
1.56535
1.37047
1.17554
0.980575
0.785565
0.590519
0.395442
0.200335
0.00520273
-0.189953
-0.385129
-0.580325
-0.775537
-0.970765
-1.16601
-1.36126
-1.55652
-1.75179
-1.94707
-2.14236
-2.33764
-2.53294
-2.72823
-2.92352
-3.11882
-3.31411
-3.50941
-3.7047
-3.9
-4.09529
-4.29058
-4.48587
-4.68116
-4.87645
-5.07174
-5.26703
-5.46232
-5.65761
-5.8529
-6.04819
-6.24348
-6.43876
-6.63405
-6.82934
-7.02463
-7.21992
-7.4152
-7.61049
-7.80578
-8.00107
-8.19636
-8.3917
-8.58705
-8.78297
-8.97935
-9.18306
-9.39776
-9.71992
-10.4285
10.4285
12.5056
12.5056
11.7884
11.0618
10.4286
9.89788
9.45259
9.07037
8.73252
8.42599
8.14229
7.87592
7.6232
7.38149
7.14878
6.92348
6.70429
6.49014
6.28012
6.07348
5.86959
5.66792
5.46802
5.26953
5.07216
4.87564
4.67978
4.4844
4.28939
4.09464
3.90005
3.70557
3.51115
3.31674
3.12233
2.9279
2.73343
2.5389
2.34432
2.14968
1.95497
1.7602
1.56538
1.3705
1.17557
0.980604
0.785594
0.590547
0.395467
0.200359
0.00522486
-0.189933
-0.385112
-0.580309
-0.775524
-0.970753
-1.166
-1.36125
-1.55652
-1.75179
-1.94707
-2.14235
-2.33764
-2.53293
-2.72823
-2.92352
-3.11882
-3.31411
-3.50941
-3.7047
-3.9
-4.09529
-4.29058
-4.48587
-4.68116
-4.87645
-5.07174
-5.26703
-5.46232
-5.65761
-5.8529
-6.04819
-6.24348
-6.43876
-6.63405
-6.82934
-7.02463
-7.21992
-7.4152
-7.61049
-7.80578
-8.00108
-8.19638
-8.39175
-8.58726
-8.78378
-8.98241
-9.19518
-9.44116
-9.87502
-11.4509
11.4509
12.5056
12.5056
11.7884
11.0618
10.4286
9.89788
9.45259
9.07037
8.73252
8.42599
8.14229
7.87592
7.6232
7.38149
7.14878
6.92348
6.70429
6.49014
6.28012
6.07348
5.86959
5.66792
5.46802
5.26953
5.07216
4.87564
4.67978
4.4844
4.28939
4.09464
3.90005
3.70557
3.51115
3.31674
3.12233
2.9279
2.73343
2.5389
2.34432
2.14968
1.95497
1.7602
1.56538
1.3705
1.17557
0.980604
0.785594
0.590547
0.395467
0.200359
0.00522486
-0.189933
-0.385112
-0.580309
-0.775524
-0.970753
-1.166
-1.36125
-1.55652
-1.75179
-1.94707
-2.14235
-2.33764
-2.53293
-2.72823
-2.92352
-3.11882
-3.31411
-3.50941
-3.7047
-3.9
-4.09529
-4.29058
-4.48587
-4.68116
-4.87645
-5.07174
-5.26703
-5.46232
-5.65761
-5.8529
-6.04819
-6.24348
-6.43876
-6.63405
-6.82934
-7.02463
-7.21992
-7.4152
-7.61049
-7.80578
-8.00108
-8.19638
-8.39175
-8.58726
-8.78378
-8.98241
-9.19518
-9.44116
-9.87502
-11.4509
11.4509
