# vtk DataFile Version 2.0
FlowField
ASCII
DATASET STRUCTURED_GRID
DIMENSIONS 102 1 12 
POINTS 1224 double
0 0 0
0.4 0 0
0.8 0 0
1.2 0 0
1.6 0 0
2 0 0
2.4 0 0
2.8 0 0
3.2 0 0
3.6 0 0
4 0 0
4.4 0 0
4.8 0 0
5.2 0 0
5.6 0 0
6 0 0
6.4 0 0
6.8 0 0
7.2 0 0
7.6 0 0
8 0 0
8.4 0 0
8.8 0 0
9.2 0 0
9.6 0 0
10 0 0
10.4 0 0
10.8 0 0
11.2 0 0
11.6 0 0
12 0 0
12.4 0 0
12.8 0 0
13.2 0 0
13.6 0 0
14 0 0
14.4 0 0
14.8 0 0
15.2 0 0
15.6 0 0
16 0 0
16.4 0 0
16.8 0 0
17.2 0 0
17.6 0 0
18 0 0
18.4 0 0
18.8 0 0
19.2 0 0
19.6 0 0
20 0 0
20.4 0 0
20.8 0 0
21.2 0 0
21.6 0 0
22 0 0
22.4 0 0
22.8 0 0
23.2 0 0
23.6 0 0
24 0 0
24.4 0 0
24.8 0 0
25.2 0 0
25.6 0 0
26 0 0
26.4 0 0
26.8 0 0
27.2 0 0
27.6 0 0
28 0 0
28.4 0 0
28.8 0 0
29.2 0 0
29.6 0 0
30 0 0
30.4 0 0
30.8 0 0
31.2 0 0
31.6 0 0
32 0 0
32.4 0 0
32.8 0 0
33.2 0 0
33.6 0 0
34 0 0
34.4 0 0
34.8 0 0
35.2 0 0
35.6 0 0
36 0 0
36.4 0 0
36.8 0 0
37.2 0 0
37.6 0 0
38 0 0
38.4 0 0
38.8 0 0
39.2 0 0
39.6 0 0
40 0 0
40.4 0 0
0 0.1 0
0.4 0.1 0
0.8 0.1 0
1.2 0.1 0
1.6 0.1 0
2 0.1 0
2.4 0.1 0
2.8 0.1 0
3.2 0.1 0
3.6 0.1 0
4 0.1 0
4.4 0.1 0
4.8 0.1 0
5.2 0.1 0
5.6 0.1 0
6 0.1 0
6.4 0.1 0
6.8 0.1 0
7.2 0.1 0
7.6 0.1 0
8 0.1 0
8.4 0.1 0
8.8 0.1 0
9.2 0.1 0
9.6 0.1 0
10 0.1 0
10.4 0.1 0
10.8 0.1 0
11.2 0.1 0
11.6 0.1 0
12 0.1 0
12.4 0.1 0
12.8 0.1 0
13.2 0.1 0
13.6 0.1 0
14 0.1 0
14.4 0.1 0
14.8 0.1 0
15.2 0.1 0
15.6 0.1 0
16 0.1 0
16.4 0.1 0
16.8 0.1 0
17.2 0.1 0
17.6 0.1 0
18 0.1 0
18.4 0.1 0
18.8 0.1 0
19.2 0.1 0
19.6 0.1 0
20 0.1 0
20.4 0.1 0
20.8 0.1 0
21.2 0.1 0
21.6 0.1 0
22 0.1 0
22.4 0.1 0
22.8 0.1 0
23.2 0.1 0
23.6 0.1 0
24 0.1 0
24.4 0.1 0
24.8 0.1 0
25.2 0.1 0
25.6 0.1 0
26 0.1 0
26.4 0.1 0
26.8 0.1 0
27.2 0.1 0
27.6 0.1 0
28 0.1 0
28.4 0.1 0
28.8 0.1 0
29.2 0.1 0
29.6 0.1 0
30 0.1 0
30.4 0.1 0
30.8 0.1 0
31.2 0.1 0
31.6 0.1 0
32 0.1 0
32.4 0.1 0
32.8 0.1 0
33.2 0.1 0
33.6 0.1 0
34 0.1 0
34.4 0.1 0
34.8 0.1 0
35.2 0.1 0
35.6 0.1 0
36 0.1 0
36.4 0.1 0
36.8 0.1 0
37.2 0.1 0
37.6 0.1 0
38 0.1 0
38.4 0.1 0
38.8 0.1 0
39.2 0.1 0
39.6 0.1 0
40 0.1 0
40.4 0.1 0
0 0.2 0
0.4 0.2 0
0.8 0.2 0
1.2 0.2 0
1.6 0.2 0
2 0.2 0
2.4 0.2 0
2.8 0.2 0
3.2 0.2 0
3.6 0.2 0
4 0.2 0
4.4 0.2 0
4.8 0.2 0
5.2 0.2 0
5.6 0.2 0
6 0.2 0
6.4 0.2 0
6.8 0.2 0
7.2 0.2 0
7.6 0.2 0
8 0.2 0
8.4 0.2 0
8.8 0.2 0
9.2 0.2 0
9.6 0.2 0
10 0.2 0
10.4 0.2 0
10.8 0.2 0
11.2 0.2 0
11.6 0.2 0
12 0.2 0
12.4 0.2 0
12.8 0.2 0
13.2 0.2 0
13.6 0.2 0
14 0.2 0
14.4 0.2 0
14.8 0.2 0
15.2 0.2 0
15.6 0.2 0
16 0.2 0
16.4 0.2 0
16.8 0.2 0
17.2 0.2 0
17.6 0.2 0
18 0.2 0
18.4 0.2 0
18.8 0.2 0
19.2 0.2 0
19.6 0.2 0
20 0.2 0
20.4 0.2 0
20.8 0.2 0
21.2 0.2 0
21.6 0.2 0
22 0.2 0
22.4 0.2 0
22.8 0.2 0
23.2 0.2 0
23.6 0.2 0
24 0.2 0
24.4 0.2 0
24.8 0.2 0
25.2 0.2 0
25.6 0.2 0
26 0.2 0
26.4 0.2 0
26.8 0.2 0
27.2 0.2 0
27.6 0.2 0
28 0.2 0
28.4 0.2 0
28.8 0.2 0
29.2 0.2 0
29.6 0.2 0
30 0.2 0
30.4 0.2 0
30.8 0.2 0
31.2 0.2 0
31.6 0.2 0
32 0.2 0
32.4 0.2 0
32.8 0.2 0
33.2 0.2 0
33.6 0.2 0
34 0.2 0
34.4 0.2 0
34.8 0.2 0
35.2 0.2 0
35.6 0.2 0
36 0.2 0
36.4 0.2 0
36.8 0.2 0
37.2 0.2 0
37.6 0.2 0
38 0.2 0
38.4 0.2 0
38.8 0.2 0
39.2 0.2 0
39.6 0.2 0
40 0.2 0
40.4 0.2 0
0 0.3 0
0.4 0.3 0
0.8 0.3 0
1.2 0.3 0
1.6 0.3 0
2 0.3 0
2.4 0.3 0
2.8 0.3 0
3.2 0.3 0
3.6 0.3 0
4 0.3 0
4.4 0.3 0
4.8 0.3 0
5.2 0.3 0
5.6 0.3 0
6 0.3 0
6.4 0.3 0
6.8 0.3 0
7.2 0.3 0
7.6 0.3 0
8 0.3 0
8.4 0.3 0
8.8 0.3 0
9.2 0.3 0
9.6 0.3 0
10 0.3 0
10.4 0.3 0
10.8 0.3 0
11.2 0.3 0
11.6 0.3 0
12 0.3 0
12.4 0.3 0
12.8 0.3 0
13.2 0.3 0
13.6 0.3 0
14 0.3 0
14.4 0.3 0
14.8 0.3 0
15.2 0.3 0
15.6 0.3 0
16 0.3 0
16.4 0.3 0
16.8 0.3 0
17.2 0.3 0
17.6 0.3 0
18 0.3 0
18.4 0.3 0
18.8 0.3 0
19.2 0.3 0
19.6 0.3 0
20 0.3 0
20.4 0.3 0
20.8 0.3 0
21.2 0.3 0
21.6 0.3 0
22 0.3 0
22.4 0.3 0
22.8 0.3 0
23.2 0.3 0
23.6 0.3 0
24 0.3 0
24.4 0.3 0
24.8 0.3 0
25.2 0.3 0
25.6 0.3 0
26 0.3 0
26.4 0.3 0
26.8 0.3 0
27.2 0.3 0
27.6 0.3 0
28 0.3 0
28.4 0.3 0
28.8 0.3 0
29.2 0.3 0
29.6 0.3 0
30 0.3 0
30.4 0.3 0
30.8 0.3 0
31.2 0.3 0
31.6 0.3 0
32 0.3 0
32.4 0.3 0
32.8 0.3 0
33.2 0.3 0
33.6 0.3 0
34 0.3 0
34.4 0.3 0
34.8 0.3 0
35.2 0.3 0
35.6 0.3 0
36 0.3 0
36.4 0.3 0
36.8 0.3 0
37.2 0.3 0
37.6 0.3 0
38 0.3 0
38.4 0.3 0
38.8 0.3 0
39.2 0.3 0
39.6 0.3 0
40 0.3 0
40.4 0.3 0
0 0.4 0
0.4 0.4 0
0.8 0.4 0
1.2 0.4 0
1.6 0.4 0
2 0.4 0
2.4 0.4 0
2.8 0.4 0
3.2 0.4 0
3.6 0.4 0
4 0.4 0
4.4 0.4 0
4.8 0.4 0
5.2 0.4 0
5.6 0.4 0
6 0.4 0
6.4 0.4 0
6.8 0.4 0
7.2 0.4 0
7.6 0.4 0
8 0.4 0
8.4 0.4 0
8.8 0.4 0
9.2 0.4 0
9.6 0.4 0
10 0.4 0
10.4 0.4 0
10.8 0.4 0
11.2 0.4 0
11.6 0.4 0
12 0.4 0
12.4 0.4 0
12.8 0.4 0
13.2 0.4 0
13.6 0.4 0
14 0.4 0
14.4 0.4 0
14.8 0.4 0
15.2 0.4 0
15.6 0.4 0
16 0.4 0
16.4 0.4 0
16.8 0.4 0
17.2 0.4 0
17.6 0.4 0
18 0.4 0
18.4 0.4 0
18.8 0.4 0
19.2 0.4 0
19.6 0.4 0
20 0.4 0
20.4 0.4 0
20.8 0.4 0
21.2 0.4 0
21.6 0.4 0
22 0.4 0
22.4 0.4 0
22.8 0.4 0
23.2 0.4 0
23.6 0.4 0
24 0.4 0
24.4 0.4 0
24.8 0.4 0
25.2 0.4 0
25.6 0.4 0
26 0.4 0
26.4 0.4 0
26.8 0.4 0
27.2 0.4 0
27.6 0.4 0
28 0.4 0
28.4 0.4 0
28.8 0.4 0
29.2 0.4 0
29.6 0.4 0
30 0.4 0
30.4 0.4 0
30.8 0.4 0
31.2 0.4 0
31.6 0.4 0
32 0.4 0
32.4 0.4 0
32.8 0.4 0
33.2 0.4 0
33.6 0.4 0
34 0.4 0
34.4 0.4 0
34.8 0.4 0
35.2 0.4 0
35.6 0.4 0
36 0.4 0
36.4 0.4 0
36.8 0.4 0
37.2 0.4 0
37.6 0.4 0
38 0.4 0
38.4 0.4 0
38.8 0.4 0
39.2 0.4 0
39.6 0.4 0
40 0.4 0
40.4 0.4 0
0 0.5 0
0.4 0.5 0
0.8 0.5 0
1.2 0.5 0
1.6 0.5 0
2 0.5 0
2.4 0.5 0
2.8 0.5 0
3.2 0.5 0
3.6 0.5 0
4 0.5 0
4.4 0.5 0
4.8 0.5 0
5.2 0.5 0
5.6 0.5 0
6 0.5 0
6.4 0.5 0
6.8 0.5 0
7.2 0.5 0
7.6 0.5 0
8 0.5 0
8.4 0.5 0
8.8 0.5 0
9.2 0.5 0
9.6 0.5 0
10 0.5 0
10.4 0.5 0
10.8 0.5 0
11.2 0.5 0
11.6 0.5 0
12 0.5 0
12.4 0.5 0
12.8 0.5 0
13.2 0.5 0
13.6 0.5 0
14 0.5 0
14.4 0.5 0
14.8 0.5 0
15.2 0.5 0
15.6 0.5 0
16 0.5 0
16.4 0.5 0
16.8 0.5 0
17.2 0.5 0
17.6 0.5 0
18 0.5 0
18.4 0.5 0
18.8 0.5 0
19.2 0.5 0
19.6 0.5 0
20 0.5 0
20.4 0.5 0
20.8 0.5 0
21.2 0.5 0
21.6 0.5 0
22 0.5 0
22.4 0.5 0
22.8 0.5 0
23.2 0.5 0
23.6 0.5 0
24 0.5 0
24.4 0.5 0
24.8 0.5 0
25.2 0.5 0
25.6 0.5 0
26 0.5 0
26.4 0.5 0
26.8 0.5 0
27.2 0.5 0
27.6 0.5 0
28 0.5 0
28.4 0.5 0
28.8 0.5 0
29.2 0.5 0
29.6 0.5 0
30 0.5 0
30.4 0.5 0
30.8 0.5 0
31.2 0.5 0
31.6 0.5 0
32 0.5 0
32.4 0.5 0
32.8 0.5 0
33.2 0.5 0
33.6 0.5 0
34 0.5 0
34.4 0.5 0
34.8 0.5 0
35.2 0.5 0
35.6 0.5 0
36 0.5 0
36.4 0.5 0
36.8 0.5 0
37.2 0.5 0
37.6 0.5 0
38 0.5 0
38.4 0.5 0
38.8 0.5 0
39.2 0.5 0
39.6 0.5 0
40 0.5 0
40.4 0.5 0
0 0.6 0
0.4 0.6 0
0.8 0.6 0
1.2 0.6 0
1.6 0.6 0
2 0.6 0
2.4 0.6 0
2.8 0.6 0
3.2 0.6 0
3.6 0.6 0
4 0.6 0
4.4 0.6 0
4.8 0.6 0
5.2 0.6 0
5.6 0.6 0
6 0.6 0
6.4 0.6 0
6.8 0.6 0
7.2 0.6 0
7.6 0.6 0
8 0.6 0
8.4 0.6 0
8.8 0.6 0
9.2 0.6 0
9.6 0.6 0
10 0.6 0
10.4 0.6 0
10.8 0.6 0
11.2 0.6 0
11.6 0.6 0
12 0.6 0
12.4 0.6 0
12.8 0.6 0
13.2 0.6 0
13.6 0.6 0
14 0.6 0
14.4 0.6 0
14.8 0.6 0
15.2 0.6 0
15.6 0.6 0
16 0.6 0
16.4 0.6 0
16.8 0.6 0
17.2 0.6 0
17.6 0.6 0
18 0.6 0
18.4 0.6 0
18.8 0.6 0
19.2 0.6 0
19.6 0.6 0
20 0.6 0
20.4 0.6 0
20.8 0.6 0
21.2 0.6 0
21.6 0.6 0
22 0.6 0
22.4 0.6 0
22.8 0.6 0
23.2 0.6 0
23.6 0.6 0
24 0.6 0
24.4 0.6 0
24.8 0.6 0
25.2 0.6 0
25.6 0.6 0
26 0.6 0
26.4 0.6 0
26.8 0.6 0
27.2 0.6 0
27.6 0.6 0
28 0.6 0
28.4 0.6 0
28.8 0.6 0
29.2 0.6 0
29.6 0.6 0
30 0.6 0
30.4 0.6 0
30.8 0.6 0
31.2 0.6 0
31.6 0.6 0
32 0.6 0
32.4 0.6 0
32.8 0.6 0
33.2 0.6 0
33.6 0.6 0
34 0.6 0
34.4 0.6 0
34.8 0.6 0
35.2 0.6 0
35.6 0.6 0
36 0.6 0
36.4 0.6 0
36.8 0.6 0
37.2 0.6 0
37.6 0.6 0
38 0.6 0
38.4 0.6 0
38.8 0.6 0
39.2 0.6 0
39.6 0.6 0
40 0.6 0
40.4 0.6 0
0 0.7 0
0.4 0.7 0
0.8 0.7 0
1.2 0.7 0
1.6 0.7 0
2 0.7 0
2.4 0.7 0
2.8 0.7 0
3.2 0.7 0
3.6 0.7 0
4 0.7 0
4.4 0.7 0
4.8 0.7 0
5.2 0.7 0
5.6 0.7 0
6 0.7 0
6.4 0.7 0
6.8 0.7 0
7.2 0.7 0
7.6 0.7 0
8 0.7 0
8.4 0.7 0
8.8 0.7 0
9.2 0.7 0
9.6 0.7 0
10 0.7 0
10.4 0.7 0
10.8 0.7 0
11.2 0.7 0
11.6 0.7 0
12 0.7 0
12.4 0.7 0
12.8 0.7 0
13.2 0.7 0
13.6 0.7 0
14 0.7 0
14.4 0.7 0
14.8 0.7 0
15.2 0.7 0
15.6 0.7 0
16 0.7 0
16.4 0.7 0
16.8 0.7 0
17.2 0.7 0
17.6 0.7 0
18 0.7 0
18.4 0.7 0
18.8 0.7 0
19.2 0.7 0
19.6 0.7 0
20 0.7 0
20.4 0.7 0
20.8 0.7 0
21.2 0.7 0
21.6 0.7 0
22 0.7 0
22.4 0.7 0
22.8 0.7 0
23.2 0.7 0
23.6 0.7 0
24 0.7 0
24.4 0.7 0
24.8 0.7 0
25.2 0.7 0
25.6 0.7 0
26 0.7 0
26.4 0.7 0
26.8 0.7 0
27.2 0.7 0
27.6 0.7 0
28 0.7 0
28.4 0.7 0
28.8 0.7 0
29.2 0.7 0
29.6 0.7 0
30 0.7 0
30.4 0.7 0
30.8 0.7 0
31.2 0.7 0
31.6 0.7 0
32 0.7 0
32.4 0.7 0
32.8 0.7 0
33.2 0.7 0
33.6 0.7 0
34 0.7 0
34.4 0.7 0
34.8 0.7 0
35.2 0.7 0
35.6 0.7 0
36 0.7 0
36.4 0.7 0
36.8 0.7 0
37.2 0.7 0
37.6 0.7 0
38 0.7 0
38.4 0.7 0
38.8 0.7 0
39.2 0.7 0
39.6 0.7 0
40 0.7 0
40.4 0.7 0
0 0.8 0
0.4 0.8 0
0.8 0.8 0
1.2 0.8 0
1.6 0.8 0
2 0.8 0
2.4 0.8 0
2.8 0.8 0
3.2 0.8 0
3.6 0.8 0
4 0.8 0
4.4 0.8 0
4.8 0.8 0
5.2 0.8 0
5.6 0.8 0
6 0.8 0
6.4 0.8 0
6.8 0.8 0
7.2 0.8 0
7.6 0.8 0
8 0.8 0
8.4 0.8 0
8.8 0.8 0
9.2 0.8 0
9.6 0.8 0
10 0.8 0
10.4 0.8 0
10.8 0.8 0
11.2 0.8 0
11.6 0.8 0
12 0.8 0
12.4 0.8 0
12.8 0.8 0
13.2 0.8 0
13.6 0.8 0
14 0.8 0
14.4 0.8 0
14.8 0.8 0
15.2 0.8 0
15.6 0.8 0
16 0.8 0
16.4 0.8 0
16.8 0.8 0
17.2 0.8 0
17.6 0.8 0
18 0.8 0
18.4 0.8 0
18.8 0.8 0
19.2 0.8 0
19.6 0.8 0
20 0.8 0
20.4 0.8 0
20.8 0.8 0
21.2 0.8 0
21.6 0.8 0
22 0.8 0
22.4 0.8 0
22.8 0.8 0
23.2 0.8 0
23.6 0.8 0
24 0.8 0
24.4 0.8 0
24.8 0.8 0
25.2 0.8 0
25.6 0.8 0
26 0.8 0
26.4 0.8 0
26.8 0.8 0
27.2 0.8 0
27.6 0.8 0
28 0.8 0
28.4 0.8 0
28.8 0.8 0
29.2 0.8 0
29.6 0.8 0
30 0.8 0
30.4 0.8 0
30.8 0.8 0
31.2 0.8 0
31.6 0.8 0
32 0.8 0
32.4 0.8 0
32.8 0.8 0
33.2 0.8 0
33.6 0.8 0
34 0.8 0
34.4 0.8 0
34.8 0.8 0
35.2 0.8 0
35.6 0.8 0
36 0.8 0
36.4 0.8 0
36.8 0.8 0
37.2 0.8 0
37.6 0.8 0
38 0.8 0
38.4 0.8 0
38.8 0.8 0
39.2 0.8 0
39.6 0.8 0
40 0.8 0
40.4 0.8 0
0 0.9 0
0.4 0.9 0
0.8 0.9 0
1.2 0.9 0
1.6 0.9 0
2 0.9 0
2.4 0.9 0
2.8 0.9 0
3.2 0.9 0
3.6 0.9 0
4 0.9 0
4.4 0.9 0
4.8 0.9 0
5.2 0.9 0
5.6 0.9 0
6 0.9 0
6.4 0.9 0
6.8 0.9 0
7.2 0.9 0
7.6 0.9 0
8 0.9 0
8.4 0.9 0
8.8 0.9 0
9.2 0.9 0
9.6 0.9 0
10 0.9 0
10.4 0.9 0
10.8 0.9 0
11.2 0.9 0
11.6 0.9 0
12 0.9 0
12.4 0.9 0
12.8 0.9 0
13.2 0.9 0
13.6 0.9 0
14 0.9 0
14.4 0.9 0
14.8 0.9 0
15.2 0.9 0
15.6 0.9 0
16 0.9 0
16.4 0.9 0
16.8 0.9 0
17.2 0.9 0
17.6 0.9 0
18 0.9 0
18.4 0.9 0
18.8 0.9 0
19.2 0.9 0
19.6 0.9 0
20 0.9 0
20.4 0.9 0
20.8 0.9 0
21.2 0.9 0
21.6 0.9 0
22 0.9 0
22.4 0.9 0
22.8 0.9 0
23.2 0.9 0
23.6 0.9 0
24 0.9 0
24.4 0.9 0
24.8 0.9 0
25.2 0.9 0
25.6 0.9 0
26 0.9 0
26.4 0.9 0
26.8 0.9 0
27.2 0.9 0
27.6 0.9 0
28 0.9 0
28.4 0.9 0
28.8 0.9 0
29.2 0.9 0
29.6 0.9 0
30 0.9 0
30.4 0.9 0
30.8 0.9 0
31.2 0.9 0
31.6 0.9 0
32 0.9 0
32.4 0.9 0
32.8 0.9 0
33.2 0.9 0
33.6 0.9 0
34 0.9 0
34.4 0.9 0
34.8 0.9 0
35.2 0.9 0
35.6 0.9 0
36 0.9 0
36.4 0.9 0
36.8 0.9 0
37.2 0.9 0
37.6 0.9 0
38 0.9 0
38.4 0.9 0
38.8 0.9 0
39.2 0.9 0
39.6 0.9 0
40 0.9 0
40.4 0.9 0
0 1 0
0.4 1 0
0.8 1 0
1.2 1 0
1.6 1 0
2 1 0
2.4 1 0
2.8 1 0
3.2 1 0
3.6 1 0
4 1 0
4.4 1 0
4.8 1 0
5.2 1 0
5.6 1 0
6 1 0
6.4 1 0
6.8 1 0
7.2 1 0
7.6 1 0
8 1 0
8.4 1 0
8.8 1 0
9.2 1 0
9.6 1 0
10 1 0
10.4 1 0
10.8 1 0
11.2 1 0
11.6 1 0
12 1 0
12.4 1 0
12.8 1 0
13.2 1 0
13.6 1 0
14 1 0
14.4 1 0
14.8 1 0
15.2 1 0
15.6 1 0
16 1 0
16.4 1 0
16.8 1 0
17.2 1 0
17.6 1 0
18 1 0
18.4 1 0
18.8 1 0
19.2 1 0
19.6 1 0
20 1 0
20.4 1 0
20.8 1 0
21.2 1 0
21.6 1 0
22 1 0
22.4 1 0
22.8 1 0
23.2 1 0
23.6 1 0
24 1 0
24.4 1 0
24.8 1 0
25.2 1 0
25.6 1 0
26 1 0
26.4 1 0
26.8 1 0
27.2 1 0
27.6 1 0
28 1 0
28.4 1 0
28.8 1 0
29.2 1 0
29.6 1 0
30 1 0
30.4 1 0
30.8 1 0
31.2 1 0
31.6 1 0
32 1 0
32.4 1 0
32.8 1 0
33.2 1 0
33.6 1 0
34 1 0
34.4 1 0
34.8 1 0
35.2 1 0
35.6 1 0
36 1 0
36.4 1 0
36.8 1 0
37.2 1 0
37.6 1 0
38 1 0
38.4 1 0
38.8 1 0
39.2 1 0
39.6 1 0
40 1 0
40.4 1 0
0 1.1 0
0.4 1.1 0
0.8 1.1 0
1.2 1.1 0
1.6 1.1 0
2 1.1 0
2.4 1.1 0
2.8 1.1 0
3.2 1.1 0
3.6 1.1 0
4 1.1 0
4.4 1.1 0
4.8 1.1 0
5.2 1.1 0
5.6 1.1 0
6 1.1 0
6.4 1.1 0
6.8 1.1 0
7.2 1.1 0
7.6 1.1 0
8 1.1 0
8.4 1.1 0
8.8 1.1 0
9.2 1.1 0
9.6 1.1 0
10 1.1 0
10.4 1.1 0
10.8 1.1 0
11.2 1.1 0
11.6 1.1 0
12 1.1 0
12.4 1.1 0
12.8 1.1 0
13.2 1.1 0
13.6 1.1 0
14 1.1 0
14.4 1.1 0
14.8 1.1 0
15.2 1.1 0
15.6 1.1 0
16 1.1 0
16.4 1.1 0
16.8 1.1 0
17.2 1.1 0
17.6 1.1 0
18 1.1 0
18.4 1.1 0
18.8 1.1 0
19.2 1.1 0
19.6 1.1 0
20 1.1 0
20.4 1.1 0
20.8 1.1 0
21.2 1.1 0
21.6 1.1 0
22 1.1 0
22.4 1.1 0
22.8 1.1 0
23.2 1.1 0
23.6 1.1 0
24 1.1 0
24.4 1.1 0
24.8 1.1 0
25.2 1.1 0
25.6 1.1 0
26 1.1 0
26.4 1.1 0
26.8 1.1 0
27.2 1.1 0
27.6 1.1 0
28 1.1 0
28.4 1.1 0
28.8 1.1 0
29.2 1.1 0
29.6 1.1 0
30 1.1 0
30.4 1.1 0
30.8 1.1 0
31.2 1.1 0
31.6 1.1 0
32 1.1 0
32.4 1.1 0
32.8 1.1 0
33.2 1.1 0
33.6 1.1 0
34 1.1 0
34.4 1.1 0
34.8 1.1 0
35.2 1.1 0
35.6 1.1 0
36 1.1 0
36.4 1.1 0
36.8 1.1 0
37.2 1.1 0
37.6 1.1 0
38 1.1 0
38.4 1.1 0
38.8 1.1 0
39.2 1.1 0
39.6 1.1 0
40 1.1 0
40.4 1.1 0

POINT_DATA 1224

SCALARS u double
LOOKUP_TABLE default
-1
-0.80718
-0.659027
-0.550101
-0.474363
-0.423322
-0.389001
-0.365435
-0.348701
-0.336397
-0.3271
-0.319972
-0.314505
-0.310369
-0.307327
-0.305187
-0.303776
-0.302936
-0.30252
-0.3024
-0.302471
-0.302657
-0.302883
-0.303106
-0.303304
-0.30347
-0.303601
-0.3037
-0.303774
-0.303828
-0.303865
-0.303891
-0.303909
-0.303921
-0.30393
-0.303935
-0.303938
-0.30394
-0.303942
-0.303943
-0.303943
-0.303944
-0.303944
-0.303944
-0.303944
-0.303944
-0.303944
-0.303944
-0.303944
-0.303944
-0.303944
-0.303944
-0.303944
-0.303944
-0.303944
-0.303944
-0.303944
-0.303944
-0.303944
-0.303944
-0.303944
-0.303944
-0.303944
-0.303944
-0.303944
-0.303944
-0.303944
-0.303944
-0.303944
-0.303944
-0.303944
-0.303944
-0.303944
-0.303944
-0.303944
-0.303943
-0.303943
-0.303943
-0.303943
-0.303943
-0.303943
-0.303943
-0.303943
-0.303943
-0.303943
-0.303943
-0.303943
-0.303943
-0.303943
-0.303944
-0.303944
-0.303946
-0.303954
-0.303975
-0.3041
-0.30441
-0.3062
-0.310716
-0.337264
-0.376653
-1
-0.376653
1
0.80718
0.659027
0.550101
0.474363
0.423322
0.389001
0.365435
0.348701
0.336396
0.327097
0.319966
0.314494
0.310351
0.307301
0.305153
0.303734
0.302887
0.302465
0.302341
0.302409
0.302594
0.30282
0.303044
0.303243
0.30341
0.303541
0.303642
0.303717
0.30377
0.303809
0.303835
0.303853
0.303866
0.303874
0.303879
0.303883
0.303885
0.303886
0.303887
0.303888
0.303888
0.303888
0.303888
0.303888
0.303888
0.303888
0.303888
0.303888
0.303888
0.303888
0.303888
0.303888
0.303888
0.303888
0.303888
0.303888
0.303888
0.303888
0.303888
0.303888
0.303888
0.303888
0.303888
0.303888
0.303888
0.303888
0.303888
0.303888
0.303888
0.303888
0.303888
0.303888
0.303888
0.303888
0.303888
0.303888
0.303888
0.303888
0.303888
0.303888
0.303888
0.303888
0.303888
0.303888
0.303888
0.303888
0.303888
0.303888
0.303888
0.303889
0.30389
0.303899
0.30392
0.304044
0.304355
0.306145
0.310663
0.337214
0.376624
1
0.376653
1
1.02373
1.02809
1.01223
0.983935
0.950689
0.917733
0.887957
0.862496
0.841442
0.824406
0.810866
0.800321
0.792336
0.786525
0.782531
0.780008
0.778622
0.778062
0.778058
0.778384
0.778877
0.779426
0.779945
0.780394
0.780758
0.781041
0.781253
0.781407
0.781517
0.781594
0.781647
0.781683
0.781707
0.781723
0.781734
0.781741
0.781745
0.781748
0.781749
0.78175
0.781751
0.781751
0.781752
0.781752
0.781752
0.781752
0.781752
0.781752
0.781752
0.781752
0.781752
0.781752
0.781752
0.781752
0.781752
0.781752
0.781751
0.781751
0.781751
0.781751
0.781751
0.781751
0.781751
0.781751
0.781751
0.781751
0.781751
0.781751
0.781751
0.781751
0.781751
0.781751
0.781751
0.781751
0.781751
0.781751
0.781751
0.781751
0.78175
0.78175
0.78175
0.78175
0.78175
0.78175
0.78175
0.78175
0.78175
0.78175
0.78175
0.78175
0.78175
0.781753
0.78176
0.78181
0.781891
0.782689
0.783593
0.796091
0.812447
1
0.812553
1
1.04017
1.08473
1.11989
1.14301
1.15539
1.15973
1.15878
1.15476
1.14928
1.14339
1.13771
1.13263
1.12835
1.12496
1.12246
1.1208
1.11986
1.1195
1.11955
1.11986
1.1203
1.12078
1.12123
1.12163
1.12196
1.12222
1.12241
1.12255
1.12265
1.12271
1.12276
1.12279
1.12281
1.12283
1.12284
1.12284
1.12285
1.12285
1.12285
1.12285
1.12285
1.12285
1.12285
1.12285
1.12285
1.12285
1.12285
1.12285
1.12285
1.12285
1.12285
1.12285
1.12285
1.12285
1.12285
1.12285
1.12285
1.12285
1.12285
1.12285
1.12285
1.12285
1.12285
1.12285
1.12285
1.12285
1.12285
1.12285
1.12285
1.12285
1.12285
1.12285
1.12285
1.12285
1.12285
1.12285
1.12285
1.12285
1.12285
1.12285
1.12285
1.12285
1.12285
1.12285
1.12285
1.12285
1.12285
1.12285
1.12285
1.12285
1.12285
1.12285
1.12285
1.12283
1.12277
1.12257
1.12176
1.11789
1.11731
1
1.11739
1
1.03766
1.08576
1.13255
1.17421
1.20955
1.23861
1.26203
1.28065
1.29532
1.3068
1.31568
1.32247
1.32753
1.33118
1.33367
1.33527
1.33618
1.3366
1.33671
1.33662
1.33643
1.33619
1.33597
1.33577
1.33561
1.33549
1.33539
1.33533
1.33528
1.33525
1.33522
1.33521
1.3352
1.33519
1.33519
1.33518
1.33518
1.33518
1.33518
1.33518
1.33518
1.33518
1.33518
1.33518
1.33518
1.33518
1.33518
1.33518
1.33518
1.33518
1.33518
1.33518
1.33518
1.33518
1.33518
1.33518
1.33518
1.33518
1.33518
1.33518
1.33518
1.33518
1.33518
1.33518
1.33518
1.33518
1.33518
1.33518
1.33518
1.33518
1.33518
1.33518
1.33518
1.33518
1.33518
1.33518
1.33518
1.33518
1.33518
1.33518
1.33518
1.33518
1.33518
1.33518
1.33518
1.33518
1.33518
1.33518
1.33518
1.33517
1.33517
1.33517
1.33516
1.3351
1.33502
1.33408
1.33321
1.31772
1.31509
1
1.31503
1
1.03576
1.08266
1.1305
1.17621
1.21854
1.25696
1.29129
1.3215
1.34772
1.37015
1.38901
1.40452
1.41692
1.42642
1.43332
1.43794
1.44067
1.44192
1.44212
1.44163
1.44077
1.43976
1.43876
1.43788
1.43714
1.43656
1.43611
1.43578
1.43555
1.43538
1.43527
1.43519
1.43514
1.43511
1.43508
1.43507
1.43506
1.43505
1.43505
1.43505
1.43504
1.43504
1.43504
1.43504
1.43504
1.43504
1.43504
1.43504
1.43504
1.43504
1.43504
1.43504
1.43504
1.43504
1.43504
1.43504
1.43504
1.43504
1.43504
1.43504
1.43504
1.43504
1.43504
1.43504
1.43504
1.43504
1.43504
1.43504
1.43504
1.43504
1.43504
1.43504
1.43504
1.43504
1.43504
1.43504
1.43504
1.43504
1.43504
1.43504
1.43504
1.43504
1.43504
1.43504
1.43504
1.43504
1.43504
1.43504
1.43504
1.43504
1.43504
1.43503
1.43503
1.43494
1.43487
1.43354
1.43279
1.4116
1.40934
1
1.40916
1
1.03576
1.08266
1.1305
1.17621
1.21854
1.25696
1.29129
1.3215
1.34772
1.37015
1.38901
1.40452
1.41692
1.42642
1.43332
1.43794
1.44067
1.44193
1.44212
1.44163
1.44077
1.43976
1.43876
1.43788
1.43714
1.43655
1.43611
1.43578
1.43555
1.43538
1.43527
1.43519
1.43514
1.4351
1.43508
1.43507
1.43506
1.43505
1.43505
1.43505
1.43504
1.43504
1.43504
1.43504
1.43504
1.43504
1.43504
1.43504
1.43504
1.43504
1.43504
1.43504
1.43504
1.43504
1.43504
1.43504
1.43504
1.43504
1.43504
1.43504
1.43504
1.43504
1.43504
1.43504
1.43504
1.43504
1.43504
1.43504
1.43504
1.43504
1.43504
1.43504
1.43504
1.43504
1.43504
1.43504
1.43504
1.43504
1.43504
1.43504
1.43504
1.43504
1.43504
1.43504
1.43504
1.43504
1.43504
1.43504
1.43504
1.43504
1.43504
1.43503
1.43503
1.43494
1.43487
1.43354
1.4328
1.4116
1.40934
1
1.40916
1
1.03766
1.08576
1.13255
1.17421
1.20955
1.23861
1.26203
1.28065
1.29532
1.3068
1.31569
1.32247
1.32753
1.33118
1.33368
1.33527
1.33618
1.33661
1.33671
1.33662
1.33643
1.33619
1.33596
1.33577
1.33561
1.33548
1.33539
1.33532
1.33528
1.33524
1.33522
1.33521
1.33519
1.33519
1.33518
1.33518
1.33518
1.33518
1.33518
1.33518
1.33518
1.33518
1.33518
1.33518
1.33518
1.33518
1.33518
1.33518
1.33518
1.33518
1.33518
1.33518
1.33518
1.33518
1.33518
1.33518
1.33518
1.33518
1.33518
1.33518
1.33518
1.33518
1.33518
1.33518
1.33518
1.33518
1.33518
1.33518
1.33518
1.33518
1.33518
1.33518
1.33518
1.33518
1.33518
1.33518
1.33518
1.33518
1.33518
1.33518
1.33518
1.33518
1.33518
1.33518
1.33518
1.33518
1.33518
1.33518
1.33518
1.33518
1.33517
1.33517
1.33516
1.3351
1.33502
1.33408
1.33321
1.31772
1.31509
1
1.31503
1
1.04017
1.08473
1.11989
1.14301
1.15539
1.15973
1.15878
1.15476
1.14928
1.14339
1.13772
1.13264
1.12836
1.12496
1.12246
1.1208
1.11986
1.1195
1.11955
1.11986
1.1203
1.12078
1.12123
1.12163
1.12196
1.12221
1.12241
1.12254
1.12264
1.12271
1.12276
1.12279
1.12281
1.12283
1.12284
1.12284
1.12285
1.12285
1.12285
1.12285
1.12285
1.12285
1.12285
1.12285
1.12285
1.12285
1.12285
1.12285
1.12285
1.12285
1.12285
1.12285
1.12285
1.12285
1.12285
1.12285
1.12285
1.12285
1.12285
1.12285
1.12285
1.12285
1.12285
1.12285
1.12285
1.12285
1.12285
1.12285
1.12285
1.12285
1.12285
1.12285
1.12285
1.12285
1.12285
1.12285
1.12285
1.12285
1.12285
1.12285
1.12285
1.12285
1.12285
1.12285
1.12285
1.12285
1.12285
1.12285
1.12285
1.12285
1.12285
1.12285
1.12285
1.12283
1.12277
1.12257
1.12176
1.11789
1.11731
1
1.11739
1
1.02373
1.02809
1.01223
0.983935
0.95069
0.917734
0.887958
0.862497
0.841443
0.824409
0.810869
0.800325
0.79234
0.78653
0.782536
0.780012
0.778625
0.778064
0.77806
0.778384
0.778877
0.779425
0.779944
0.780392
0.780757
0.78104
0.781252
0.781406
0.781516
0.781593
0.781646
0.781682
0.781707
0.781723
0.781733
0.78174
0.781744
0.781747
0.781749
0.78175
0.78175
0.781751
0.781751
0.781751
0.781751
0.781751
0.781751
0.781751
0.781751
0.781751
0.781751
0.781751
0.781751
0.781751
0.781751
0.781751
0.781751
0.781751
0.781751
0.781751
0.78175
0.78175
0.78175
0.78175
0.78175
0.78175
0.78175
0.78175
0.78175
0.78175
0.78175
0.78175
0.78175
0.78175
0.78175
0.78175
0.78175
0.78175
0.78175
0.781749
0.781749
0.781749
0.781749
0.781749
0.781749
0.781749
0.781749
0.781749
0.781749
0.781749
0.78175
0.781753
0.781759
0.781809
0.78189
0.782689
0.783593
0.79609
0.812447
1
0.812552
1
0.80718
0.659028
0.550101
0.474364
0.423323
0.389002
0.365436
0.348702
0.336397
0.327099
0.319968
0.314495
0.310353
0.307303
0.305155
0.303736
0.302888
0.302466
0.302341
0.302409
0.302594
0.30282
0.303043
0.303243
0.303409
0.303541
0.303642
0.303717
0.30377
0.303809
0.303835
0.303853
0.303865
0.303874
0.303879
0.303883
0.303885
0.303886
0.303887
0.303888
0.303888
0.303888
0.303888
0.303888
0.303888
0.303888
0.303888
0.303888
0.303888
0.303888
0.303888
0.303888
0.303888
0.303888
0.303888
0.303888
0.303888
0.303888
0.303888
0.303888
0.303888
0.303888
0.303888
0.303888
0.303888
0.303888
0.303888
0.303888
0.303888
0.303888
0.303888
0.303888
0.303887
0.303887
0.303887
0.303887
0.303887
0.303887
0.303887
0.303887
0.303887
0.303887
0.303887
0.303887
0.303887
0.303887
0.303887
0.303887
0.303887
0.303888
0.303889
0.303898
0.303919
0.304044
0.304354
0.306145
0.310662
0.337213
0.376624
1
0.376653
-1
-0.80718
-0.659028
-0.550101
-0.474364
-0.423323
-0.389002
-0.365436
-0.348702
-0.336398
-0.327101
-0.319974
-0.314506
-0.310371
-0.307329
-0.305189
-0.303778
-0.302937
-0.302521
-0.3024
-0.302471
-0.302657
-0.302883
-0.303106
-0.303304
-0.30347
-0.3036
-0.3037
-0.303774
-0.303827
-0.303865
-0.303891
-0.303909
-0.303921
-0.303929
-0.303935
-0.303938
-0.30394
-0.303942
-0.303943
-0.303943
-0.303943
-0.303944
-0.303944
-0.303944
-0.303944
-0.303944
-0.303944
-0.303944
-0.303944
-0.303944
-0.303944
-0.303944
-0.303944
-0.303943
-0.303943
-0.303943
-0.303943
-0.303943
-0.303943
-0.303943
-0.303943
-0.303943
-0.303943
-0.303943
-0.303943
-0.303943
-0.303943
-0.303943
-0.303943
-0.303943
-0.303943
-0.303943
-0.303943
-0.303943
-0.303943
-0.303943
-0.303943
-0.303943
-0.303943
-0.303943
-0.303943
-0.303943
-0.303943
-0.303943
-0.303943
-0.303943
-0.303943
-0.303943
-0.303943
-0.303943
-0.303945
-0.303953
-0.303975
-0.304099
-0.304409
-0.3062
-0.310716
-0.337263
-0.376653
-1
-0.376653
