# vtk DataFile Version 2.0
FlowField
ASCII
DATASET STRUCTURED_GRID
DIMENSIONS 102 1 12 
POINTS 1224 double
0 0 0
0.3 0 0
0.6 0 0
0.9 0 0
1.2 0 0
1.5 0 0
1.8 0 0
2.1 0 0
2.4 0 0
2.7 0 0
3 0 0
3.3 0 0
3.6 0 0
3.9 0 0
4.2 0 0
4.5 0 0
4.8 0 0
5.1 0 0
5.4 0 0
5.7 0 0
6 0 0
6.3 0 0
6.6 0 0
6.9 0 0
7.2 0 0
7.5 0 0
7.8 0 0
8.1 0 0
8.4 0 0
8.7 0 0
9 0 0
9.3 0 0
9.6 0 0
9.9 0 0
10.2 0 0
10.5 0 0
10.8 0 0
11.1 0 0
11.4 0 0
11.7 0 0
12 0 0
12.3 0 0
12.6 0 0
12.9 0 0
13.2 0 0
13.5 0 0
13.8 0 0
14.1 0 0
14.4 0 0
14.7 0 0
15 0 0
15.3 0 0
15.6 0 0
15.9 0 0
16.2 0 0
16.5 0 0
16.8 0 0
17.1 0 0
17.4 0 0
17.7 0 0
18 0 0
18.3 0 0
18.6 0 0
18.9 0 0
19.2 0 0
19.5 0 0
19.8 0 0
20.1 0 0
20.4 0 0
20.7 0 0
21 0 0
21.3 0 0
21.6 0 0
21.9 0 0
22.2 0 0
22.5 0 0
22.8 0 0
23.1 0 0
23.4 0 0
23.7 0 0
24 0 0
24.3 0 0
24.6 0 0
24.9 0 0
25.2 0 0
25.5 0 0
25.8 0 0
26.1 0 0
26.4 0 0
26.7 0 0
27 0 0
27.3 0 0
27.6 0 0
27.9 0 0
28.2 0 0
28.5 0 0
28.8 0 0
29.1 0 0
29.4 0 0
29.7 0 0
30 0 0
30.3 0 0
0 0.1 0
0.3 0.1 0
0.6 0.1 0
0.9 0.1 0
1.2 0.1 0
1.5 0.1 0
1.8 0.1 0
2.1 0.1 0
2.4 0.1 0
2.7 0.1 0
3 0.1 0
3.3 0.1 0
3.6 0.1 0
3.9 0.1 0
4.2 0.1 0
4.5 0.1 0
4.8 0.1 0
5.1 0.1 0
5.4 0.1 0
5.7 0.1 0
6 0.1 0
6.3 0.1 0
6.6 0.1 0
6.9 0.1 0
7.2 0.1 0
7.5 0.1 0
7.8 0.1 0
8.1 0.1 0
8.4 0.1 0
8.7 0.1 0
9 0.1 0
9.3 0.1 0
9.6 0.1 0
9.9 0.1 0
10.2 0.1 0
10.5 0.1 0
10.8 0.1 0
11.1 0.1 0
11.4 0.1 0
11.7 0.1 0
12 0.1 0
12.3 0.1 0
12.6 0.1 0
12.9 0.1 0
13.2 0.1 0
13.5 0.1 0
13.8 0.1 0
14.1 0.1 0
14.4 0.1 0
14.7 0.1 0
15 0.1 0
15.3 0.1 0
15.6 0.1 0
15.9 0.1 0
16.2 0.1 0
16.5 0.1 0
16.8 0.1 0
17.1 0.1 0
17.4 0.1 0
17.7 0.1 0
18 0.1 0
18.3 0.1 0
18.6 0.1 0
18.9 0.1 0
19.2 0.1 0
19.5 0.1 0
19.8 0.1 0
20.1 0.1 0
20.4 0.1 0
20.7 0.1 0
21 0.1 0
21.3 0.1 0
21.6 0.1 0
21.9 0.1 0
22.2 0.1 0
22.5 0.1 0
22.8 0.1 0
23.1 0.1 0
23.4 0.1 0
23.7 0.1 0
24 0.1 0
24.3 0.1 0
24.6 0.1 0
24.9 0.1 0
25.2 0.1 0
25.5 0.1 0
25.8 0.1 0
26.1 0.1 0
26.4 0.1 0
26.7 0.1 0
27 0.1 0
27.3 0.1 0
27.6 0.1 0
27.9 0.1 0
28.2 0.1 0
28.5 0.1 0
28.8 0.1 0
29.1 0.1 0
29.4 0.1 0
29.7 0.1 0
30 0.1 0
30.3 0.1 0
0 0.2 0
0.3 0.2 0
0.6 0.2 0
0.9 0.2 0
1.2 0.2 0
1.5 0.2 0
1.8 0.2 0
2.1 0.2 0
2.4 0.2 0
2.7 0.2 0
3 0.2 0
3.3 0.2 0
3.6 0.2 0
3.9 0.2 0
4.2 0.2 0
4.5 0.2 0
4.8 0.2 0
5.1 0.2 0
5.4 0.2 0
5.7 0.2 0
6 0.2 0
6.3 0.2 0
6.6 0.2 0
6.9 0.2 0
7.2 0.2 0
7.5 0.2 0
7.8 0.2 0
8.1 0.2 0
8.4 0.2 0
8.7 0.2 0
9 0.2 0
9.3 0.2 0
9.6 0.2 0
9.9 0.2 0
10.2 0.2 0
10.5 0.2 0
10.8 0.2 0
11.1 0.2 0
11.4 0.2 0
11.7 0.2 0
12 0.2 0
12.3 0.2 0
12.6 0.2 0
12.9 0.2 0
13.2 0.2 0
13.5 0.2 0
13.8 0.2 0
14.1 0.2 0
14.4 0.2 0
14.7 0.2 0
15 0.2 0
15.3 0.2 0
15.6 0.2 0
15.9 0.2 0
16.2 0.2 0
16.5 0.2 0
16.8 0.2 0
17.1 0.2 0
17.4 0.2 0
17.7 0.2 0
18 0.2 0
18.3 0.2 0
18.6 0.2 0
18.9 0.2 0
19.2 0.2 0
19.5 0.2 0
19.8 0.2 0
20.1 0.2 0
20.4 0.2 0
20.7 0.2 0
21 0.2 0
21.3 0.2 0
21.6 0.2 0
21.9 0.2 0
22.2 0.2 0
22.5 0.2 0
22.8 0.2 0
23.1 0.2 0
23.4 0.2 0
23.7 0.2 0
24 0.2 0
24.3 0.2 0
24.6 0.2 0
24.9 0.2 0
25.2 0.2 0
25.5 0.2 0
25.8 0.2 0
26.1 0.2 0
26.4 0.2 0
26.7 0.2 0
27 0.2 0
27.3 0.2 0
27.6 0.2 0
27.9 0.2 0
28.2 0.2 0
28.5 0.2 0
28.8 0.2 0
29.1 0.2 0
29.4 0.2 0
29.7 0.2 0
30 0.2 0
30.3 0.2 0
0 0.3 0
0.3 0.3 0
0.6 0.3 0
0.9 0.3 0
1.2 0.3 0
1.5 0.3 0
1.8 0.3 0
2.1 0.3 0
2.4 0.3 0
2.7 0.3 0
3 0.3 0
3.3 0.3 0
3.6 0.3 0
3.9 0.3 0
4.2 0.3 0
4.5 0.3 0
4.8 0.3 0
5.1 0.3 0
5.4 0.3 0
5.7 0.3 0
6 0.3 0
6.3 0.3 0
6.6 0.3 0
6.9 0.3 0
7.2 0.3 0
7.5 0.3 0
7.8 0.3 0
8.1 0.3 0
8.4 0.3 0
8.7 0.3 0
9 0.3 0
9.3 0.3 0
9.6 0.3 0
9.9 0.3 0
10.2 0.3 0
10.5 0.3 0
10.8 0.3 0
11.1 0.3 0
11.4 0.3 0
11.7 0.3 0
12 0.3 0
12.3 0.3 0
12.6 0.3 0
12.9 0.3 0
13.2 0.3 0
13.5 0.3 0
13.8 0.3 0
14.1 0.3 0
14.4 0.3 0
14.7 0.3 0
15 0.3 0
15.3 0.3 0
15.6 0.3 0
15.9 0.3 0
16.2 0.3 0
16.5 0.3 0
16.8 0.3 0
17.1 0.3 0
17.4 0.3 0
17.7 0.3 0
18 0.3 0
18.3 0.3 0
18.6 0.3 0
18.9 0.3 0
19.2 0.3 0
19.5 0.3 0
19.8 0.3 0
20.1 0.3 0
20.4 0.3 0
20.7 0.3 0
21 0.3 0
21.3 0.3 0
21.6 0.3 0
21.9 0.3 0
22.2 0.3 0
22.5 0.3 0
22.8 0.3 0
23.1 0.3 0
23.4 0.3 0
23.7 0.3 0
24 0.3 0
24.3 0.3 0
24.6 0.3 0
24.9 0.3 0
25.2 0.3 0
25.5 0.3 0
25.8 0.3 0
26.1 0.3 0
26.4 0.3 0
26.7 0.3 0
27 0.3 0
27.3 0.3 0
27.6 0.3 0
27.9 0.3 0
28.2 0.3 0
28.5 0.3 0
28.8 0.3 0
29.1 0.3 0
29.4 0.3 0
29.7 0.3 0
30 0.3 0
30.3 0.3 0
0 0.4 0
0.3 0.4 0
0.6 0.4 0
0.9 0.4 0
1.2 0.4 0
1.5 0.4 0
1.8 0.4 0
2.1 0.4 0
2.4 0.4 0
2.7 0.4 0
3 0.4 0
3.3 0.4 0
3.6 0.4 0
3.9 0.4 0
4.2 0.4 0
4.5 0.4 0
4.8 0.4 0
5.1 0.4 0
5.4 0.4 0
5.7 0.4 0
6 0.4 0
6.3 0.4 0
6.6 0.4 0
6.9 0.4 0
7.2 0.4 0
7.5 0.4 0
7.8 0.4 0
8.1 0.4 0
8.4 0.4 0
8.7 0.4 0
9 0.4 0
9.3 0.4 0
9.6 0.4 0
9.9 0.4 0
10.2 0.4 0
10.5 0.4 0
10.8 0.4 0
11.1 0.4 0
11.4 0.4 0
11.7 0.4 0
12 0.4 0
12.3 0.4 0
12.6 0.4 0
12.9 0.4 0
13.2 0.4 0
13.5 0.4 0
13.8 0.4 0
14.1 0.4 0
14.4 0.4 0
14.7 0.4 0
15 0.4 0
15.3 0.4 0
15.6 0.4 0
15.9 0.4 0
16.2 0.4 0
16.5 0.4 0
16.8 0.4 0
17.1 0.4 0
17.4 0.4 0
17.7 0.4 0
18 0.4 0
18.3 0.4 0
18.6 0.4 0
18.9 0.4 0
19.2 0.4 0
19.5 0.4 0
19.8 0.4 0
20.1 0.4 0
20.4 0.4 0
20.7 0.4 0
21 0.4 0
21.3 0.4 0
21.6 0.4 0
21.9 0.4 0
22.2 0.4 0
22.5 0.4 0
22.8 0.4 0
23.1 0.4 0
23.4 0.4 0
23.7 0.4 0
24 0.4 0
24.3 0.4 0
24.6 0.4 0
24.9 0.4 0
25.2 0.4 0
25.5 0.4 0
25.8 0.4 0
26.1 0.4 0
26.4 0.4 0
26.7 0.4 0
27 0.4 0
27.3 0.4 0
27.6 0.4 0
27.9 0.4 0
28.2 0.4 0
28.5 0.4 0
28.8 0.4 0
29.1 0.4 0
29.4 0.4 0
29.7 0.4 0
30 0.4 0
30.3 0.4 0
0 0.5 0
0.3 0.5 0
0.6 0.5 0
0.9 0.5 0
1.2 0.5 0
1.5 0.5 0
1.8 0.5 0
2.1 0.5 0
2.4 0.5 0
2.7 0.5 0
3 0.5 0
3.3 0.5 0
3.6 0.5 0
3.9 0.5 0
4.2 0.5 0
4.5 0.5 0
4.8 0.5 0
5.1 0.5 0
5.4 0.5 0
5.7 0.5 0
6 0.5 0
6.3 0.5 0
6.6 0.5 0
6.9 0.5 0
7.2 0.5 0
7.5 0.5 0
7.8 0.5 0
8.1 0.5 0
8.4 0.5 0
8.7 0.5 0
9 0.5 0
9.3 0.5 0
9.6 0.5 0
9.9 0.5 0
10.2 0.5 0
10.5 0.5 0
10.8 0.5 0
11.1 0.5 0
11.4 0.5 0
11.7 0.5 0
12 0.5 0
12.3 0.5 0
12.6 0.5 0
12.9 0.5 0
13.2 0.5 0
13.5 0.5 0
13.8 0.5 0
14.1 0.5 0
14.4 0.5 0
14.7 0.5 0
15 0.5 0
15.3 0.5 0
15.6 0.5 0
15.9 0.5 0
16.2 0.5 0
16.5 0.5 0
16.8 0.5 0
17.1 0.5 0
17.4 0.5 0
17.7 0.5 0
18 0.5 0
18.3 0.5 0
18.6 0.5 0
18.9 0.5 0
19.2 0.5 0
19.5 0.5 0
19.8 0.5 0
20.1 0.5 0
20.4 0.5 0
20.7 0.5 0
21 0.5 0
21.3 0.5 0
21.6 0.5 0
21.9 0.5 0
22.2 0.5 0
22.5 0.5 0
22.8 0.5 0
23.1 0.5 0
23.4 0.5 0
23.7 0.5 0
24 0.5 0
24.3 0.5 0
24.6 0.5 0
24.9 0.5 0
25.2 0.5 0
25.5 0.5 0
25.8 0.5 0
26.1 0.5 0
26.4 0.5 0
26.7 0.5 0
27 0.5 0
27.3 0.5 0
27.6 0.5 0
27.9 0.5 0
28.2 0.5 0
28.5 0.5 0
28.8 0.5 0
29.1 0.5 0
29.4 0.5 0
29.7 0.5 0
30 0.5 0
30.3 0.5 0
0 0.6 0
0.3 0.6 0
0.6 0.6 0
0.9 0.6 0
1.2 0.6 0
1.5 0.6 0
1.8 0.6 0
2.1 0.6 0
2.4 0.6 0
2.7 0.6 0
3 0.6 0
3.3 0.6 0
3.6 0.6 0
3.9 0.6 0
4.2 0.6 0
4.5 0.6 0
4.8 0.6 0
5.1 0.6 0
5.4 0.6 0
5.7 0.6 0
6 0.6 0
6.3 0.6 0
6.6 0.6 0
6.9 0.6 0
7.2 0.6 0
7.5 0.6 0
7.8 0.6 0
8.1 0.6 0
8.4 0.6 0
8.7 0.6 0
9 0.6 0
9.3 0.6 0
9.6 0.6 0
9.9 0.6 0
10.2 0.6 0
10.5 0.6 0
10.8 0.6 0
11.1 0.6 0
11.4 0.6 0
11.7 0.6 0
12 0.6 0
12.3 0.6 0
12.6 0.6 0
12.9 0.6 0
13.2 0.6 0
13.5 0.6 0
13.8 0.6 0
14.1 0.6 0
14.4 0.6 0
14.7 0.6 0
15 0.6 0
15.3 0.6 0
15.6 0.6 0
15.9 0.6 0
16.2 0.6 0
16.5 0.6 0
16.8 0.6 0
17.1 0.6 0
17.4 0.6 0
17.7 0.6 0
18 0.6 0
18.3 0.6 0
18.6 0.6 0
18.9 0.6 0
19.2 0.6 0
19.5 0.6 0
19.8 0.6 0
20.1 0.6 0
20.4 0.6 0
20.7 0.6 0
21 0.6 0
21.3 0.6 0
21.6 0.6 0
21.9 0.6 0
22.2 0.6 0
22.5 0.6 0
22.8 0.6 0
23.1 0.6 0
23.4 0.6 0
23.7 0.6 0
24 0.6 0
24.3 0.6 0
24.6 0.6 0
24.9 0.6 0
25.2 0.6 0
25.5 0.6 0
25.8 0.6 0
26.1 0.6 0
26.4 0.6 0
26.7 0.6 0
27 0.6 0
27.3 0.6 0
27.6 0.6 0
27.9 0.6 0
28.2 0.6 0
28.5 0.6 0
28.8 0.6 0
29.1 0.6 0
29.4 0.6 0
29.7 0.6 0
30 0.6 0
30.3 0.6 0
0 0.7 0
0.3 0.7 0
0.6 0.7 0
0.9 0.7 0
1.2 0.7 0
1.5 0.7 0
1.8 0.7 0
2.1 0.7 0
2.4 0.7 0
2.7 0.7 0
3 0.7 0
3.3 0.7 0
3.6 0.7 0
3.9 0.7 0
4.2 0.7 0
4.5 0.7 0
4.8 0.7 0
5.1 0.7 0
5.4 0.7 0
5.7 0.7 0
6 0.7 0
6.3 0.7 0
6.6 0.7 0
6.9 0.7 0
7.2 0.7 0
7.5 0.7 0
7.8 0.7 0
8.1 0.7 0
8.4 0.7 0
8.7 0.7 0
9 0.7 0
9.3 0.7 0
9.6 0.7 0
9.9 0.7 0
10.2 0.7 0
10.5 0.7 0
10.8 0.7 0
11.1 0.7 0
11.4 0.7 0
11.7 0.7 0
12 0.7 0
12.3 0.7 0
12.6 0.7 0
12.9 0.7 0
13.2 0.7 0
13.5 0.7 0
13.8 0.7 0
14.1 0.7 0
14.4 0.7 0
14.7 0.7 0
15 0.7 0
15.3 0.7 0
15.6 0.7 0
15.9 0.7 0
16.2 0.7 0
16.5 0.7 0
16.8 0.7 0
17.1 0.7 0
17.4 0.7 0
17.7 0.7 0
18 0.7 0
18.3 0.7 0
18.6 0.7 0
18.9 0.7 0
19.2 0.7 0
19.5 0.7 0
19.8 0.7 0
20.1 0.7 0
20.4 0.7 0
20.7 0.7 0
21 0.7 0
21.3 0.7 0
21.6 0.7 0
21.9 0.7 0
22.2 0.7 0
22.5 0.7 0
22.8 0.7 0
23.1 0.7 0
23.4 0.7 0
23.7 0.7 0
24 0.7 0
24.3 0.7 0
24.6 0.7 0
24.9 0.7 0
25.2 0.7 0
25.5 0.7 0
25.8 0.7 0
26.1 0.7 0
26.4 0.7 0
26.7 0.7 0
27 0.7 0
27.3 0.7 0
27.6 0.7 0
27.9 0.7 0
28.2 0.7 0
28.5 0.7 0
28.8 0.7 0
29.1 0.7 0
29.4 0.7 0
29.7 0.7 0
30 0.7 0
30.3 0.7 0
0 0.8 0
0.3 0.8 0
0.6 0.8 0
0.9 0.8 0
1.2 0.8 0
1.5 0.8 0
1.8 0.8 0
2.1 0.8 0
2.4 0.8 0
2.7 0.8 0
3 0.8 0
3.3 0.8 0
3.6 0.8 0
3.9 0.8 0
4.2 0.8 0
4.5 0.8 0
4.8 0.8 0
5.1 0.8 0
5.4 0.8 0
5.7 0.8 0
6 0.8 0
6.3 0.8 0
6.6 0.8 0
6.9 0.8 0
7.2 0.8 0
7.5 0.8 0
7.8 0.8 0
8.1 0.8 0
8.4 0.8 0
8.7 0.8 0
9 0.8 0
9.3 0.8 0
9.6 0.8 0
9.9 0.8 0
10.2 0.8 0
10.5 0.8 0
10.8 0.8 0
11.1 0.8 0
11.4 0.8 0
11.7 0.8 0
12 0.8 0
12.3 0.8 0
12.6 0.8 0
12.9 0.8 0
13.2 0.8 0
13.5 0.8 0
13.8 0.8 0
14.1 0.8 0
14.4 0.8 0
14.7 0.8 0
15 0.8 0
15.3 0.8 0
15.6 0.8 0
15.9 0.8 0
16.2 0.8 0
16.5 0.8 0
16.8 0.8 0
17.1 0.8 0
17.4 0.8 0
17.7 0.8 0
18 0.8 0
18.3 0.8 0
18.6 0.8 0
18.9 0.8 0
19.2 0.8 0
19.5 0.8 0
19.8 0.8 0
20.1 0.8 0
20.4 0.8 0
20.7 0.8 0
21 0.8 0
21.3 0.8 0
21.6 0.8 0
21.9 0.8 0
22.2 0.8 0
22.5 0.8 0
22.8 0.8 0
23.1 0.8 0
23.4 0.8 0
23.7 0.8 0
24 0.8 0
24.3 0.8 0
24.6 0.8 0
24.9 0.8 0
25.2 0.8 0
25.5 0.8 0
25.8 0.8 0
26.1 0.8 0
26.4 0.8 0
26.7 0.8 0
27 0.8 0
27.3 0.8 0
27.6 0.8 0
27.9 0.8 0
28.2 0.8 0
28.5 0.8 0
28.8 0.8 0
29.1 0.8 0
29.4 0.8 0
29.7 0.8 0
30 0.8 0
30.3 0.8 0
0 0.9 0
0.3 0.9 0
0.6 0.9 0
0.9 0.9 0
1.2 0.9 0
1.5 0.9 0
1.8 0.9 0
2.1 0.9 0
2.4 0.9 0
2.7 0.9 0
3 0.9 0
3.3 0.9 0
3.6 0.9 0
3.9 0.9 0
4.2 0.9 0
4.5 0.9 0
4.8 0.9 0
5.1 0.9 0
5.4 0.9 0
5.7 0.9 0
6 0.9 0
6.3 0.9 0
6.6 0.9 0
6.9 0.9 0
7.2 0.9 0
7.5 0.9 0
7.8 0.9 0
8.1 0.9 0
8.4 0.9 0
8.7 0.9 0
9 0.9 0
9.3 0.9 0
9.6 0.9 0
9.9 0.9 0
10.2 0.9 0
10.5 0.9 0
10.8 0.9 0
11.1 0.9 0
11.4 0.9 0
11.7 0.9 0
12 0.9 0
12.3 0.9 0
12.6 0.9 0
12.9 0.9 0
13.2 0.9 0
13.5 0.9 0
13.8 0.9 0
14.1 0.9 0
14.4 0.9 0
14.7 0.9 0
15 0.9 0
15.3 0.9 0
15.6 0.9 0
15.9 0.9 0
16.2 0.9 0
16.5 0.9 0
16.8 0.9 0
17.1 0.9 0
17.4 0.9 0
17.7 0.9 0
18 0.9 0
18.3 0.9 0
18.6 0.9 0
18.9 0.9 0
19.2 0.9 0
19.5 0.9 0
19.8 0.9 0
20.1 0.9 0
20.4 0.9 0
20.7 0.9 0
21 0.9 0
21.3 0.9 0
21.6 0.9 0
21.9 0.9 0
22.2 0.9 0
22.5 0.9 0
22.8 0.9 0
23.1 0.9 0
23.4 0.9 0
23.7 0.9 0
24 0.9 0
24.3 0.9 0
24.6 0.9 0
24.9 0.9 0
25.2 0.9 0
25.5 0.9 0
25.8 0.9 0
26.1 0.9 0
26.4 0.9 0
26.7 0.9 0
27 0.9 0
27.3 0.9 0
27.6 0.9 0
27.9 0.9 0
28.2 0.9 0
28.5 0.9 0
28.8 0.9 0
29.1 0.9 0
29.4 0.9 0
29.7 0.9 0
30 0.9 0
30.3 0.9 0
0 1 0
0.3 1 0
0.6 1 0
0.9 1 0
1.2 1 0
1.5 1 0
1.8 1 0
2.1 1 0
2.4 1 0
2.7 1 0
3 1 0
3.3 1 0
3.6 1 0
3.9 1 0
4.2 1 0
4.5 1 0
4.8 1 0
5.1 1 0
5.4 1 0
5.7 1 0
6 1 0
6.3 1 0
6.6 1 0
6.9 1 0
7.2 1 0
7.5 1 0
7.8 1 0
8.1 1 0
8.4 1 0
8.7 1 0
9 1 0
9.3 1 0
9.6 1 0
9.9 1 0
10.2 1 0
10.5 1 0
10.8 1 0
11.1 1 0
11.4 1 0
11.7 1 0
12 1 0
12.3 1 0
12.6 1 0
12.9 1 0
13.2 1 0
13.5 1 0
13.8 1 0
14.1 1 0
14.4 1 0
14.7 1 0
15 1 0
15.3 1 0
15.6 1 0
15.9 1 0
16.2 1 0
16.5 1 0
16.8 1 0
17.1 1 0
17.4 1 0
17.7 1 0
18 1 0
18.3 1 0
18.6 1 0
18.9 1 0
19.2 1 0
19.5 1 0
19.8 1 0
20.1 1 0
20.4 1 0
20.7 1 0
21 1 0
21.3 1 0
21.6 1 0
21.9 1 0
22.2 1 0
22.5 1 0
22.8 1 0
23.1 1 0
23.4 1 0
23.7 1 0
24 1 0
24.3 1 0
24.6 1 0
24.9 1 0
25.2 1 0
25.5 1 0
25.8 1 0
26.1 1 0
26.4 1 0
26.7 1 0
27 1 0
27.3 1 0
27.6 1 0
27.9 1 0
28.2 1 0
28.5 1 0
28.8 1 0
29.1 1 0
29.4 1 0
29.7 1 0
30 1 0
30.3 1 0
0 1.1 0
0.3 1.1 0
0.6 1.1 0
0.9 1.1 0
1.2 1.1 0
1.5 1.1 0
1.8 1.1 0
2.1 1.1 0
2.4 1.1 0
2.7 1.1 0
3 1.1 0
3.3 1.1 0
3.6 1.1 0
3.9 1.1 0
4.2 1.1 0
4.5 1.1 0
4.8 1.1 0
5.1 1.1 0
5.4 1.1 0
5.7 1.1 0
6 1.1 0
6.3 1.1 0
6.6 1.1 0
6.9 1.1 0
7.2 1.1 0
7.5 1.1 0
7.8 1.1 0
8.1 1.1 0
8.4 1.1 0
8.7 1.1 0
9 1.1 0
9.3 1.1 0
9.6 1.1 0
9.9 1.1 0
10.2 1.1 0
10.5 1.1 0
10.8 1.1 0
11.1 1.1 0
11.4 1.1 0
11.7 1.1 0
12 1.1 0
12.3 1.1 0
12.6 1.1 0
12.9 1.1 0
13.2 1.1 0
13.5 1.1 0
13.8 1.1 0
14.1 1.1 0
14.4 1.1 0
14.7 1.1 0
15 1.1 0
15.3 1.1 0
15.6 1.1 0
15.9 1.1 0
16.2 1.1 0
16.5 1.1 0
16.8 1.1 0
17.1 1.1 0
17.4 1.1 0
17.7 1.1 0
18 1.1 0
18.3 1.1 0
18.6 1.1 0
18.9 1.1 0
19.2 1.1 0
19.5 1.1 0
19.8 1.1 0
20.1 1.1 0
20.4 1.1 0
20.7 1.1 0
21 1.1 0
21.3 1.1 0
21.6 1.1 0
21.9 1.1 0
22.2 1.1 0
22.5 1.1 0
22.8 1.1 0
23.1 1.1 0
23.4 1.1 0
23.7 1.1 0
24 1.1 0
24.3 1.1 0
24.6 1.1 0
24.9 1.1 0
25.2 1.1 0
25.5 1.1 0
25.8 1.1 0
26.1 1.1 0
26.4 1.1 0
26.7 1.1 0
27 1.1 0
27.3 1.1 0
27.6 1.1 0
27.9 1.1 0
28.2 1.1 0
28.5 1.1 0
28.8 1.1 0
29.1 1.1 0
29.4 1.1 0
29.7 1.1 0
30 1.1 0
30.3 1.1 0

POINT_DATA 1224

SCALARS u double
LOOKUP_TABLE default
-1
-0.810924
-0.643743
-0.528209
-0.455074
-0.41025
-0.382421
-0.364295
-0.351698
-0.342371
-0.335109
-0.329249
-0.324407
-0.320344
-0.31691
-0.314003
-0.311558
-0.309526
-0.30787
-0.306553
-0.305535
-0.304773
-0.304221
-0.303836
-0.303576
-0.303407
-0.303301
-0.303237
-0.303199
-0.303178
-0.303166
-0.30316
-0.303157
-0.303155
-0.303154
-0.303154
-0.303154
-0.303154
-0.303154
-0.303154
-0.303154
-0.303154
-0.303154
-0.303154
-0.303154
-0.303154
-0.303154
-0.303154
-0.303154
-0.303154
-0.303154
-0.303154
-0.303154
-0.303154
-0.303154
-0.303154
-0.303154
-0.303154
-0.303154
-0.303154
-0.303154
-0.303154
-0.303154
-0.303154
-0.303154
-0.303154
-0.303154
-0.303154
-0.303154
-0.303154
-0.303154
-0.303154
-0.303154
-0.303154
-0.303154
-0.303154
-0.303154
-0.303154
-0.303154
-0.303154
-0.303154
-0.303154
-0.303154
-0.303154
-0.303154
-0.303154
-0.303154
-0.303154
-0.303154
-0.303154
-0.303154
-0.303154
-0.303154
-0.303154
-0.303154
-0.303154
-0.303154
-0.303157
-0.303158
-0.30317
-0.30317
-1
1
0.810924
0.643743
0.528209
0.455074
0.41025
0.382421
0.364295
0.351698
0.342371
0.335109
0.329249
0.324407
0.320344
0.31691
0.314003
0.311558
0.309526
0.30787
0.306553
0.305535
0.304773
0.304221
0.303836
0.303576
0.303407
0.303301
0.303237
0.303199
0.303178
0.303166
0.30316
0.303157
0.303155
0.303154
0.303154
0.303154
0.303154
0.303154
0.303154
0.303154
0.303154
0.303154
0.303154
0.303154
0.303154
0.303154
0.303154
0.303154
0.303154
0.303154
0.303154
0.303154
0.303154
0.303154
0.303154
0.303154
0.303154
0.303154
0.303154
0.303154
0.303154
0.303154
0.303154
0.303154
0.303154
0.303154
0.303154
0.303154
0.303154
0.303154
0.303154
0.303154
0.303154
0.303154
0.303154
0.303154
0.303154
0.303154
0.303154
0.303154
0.303154
0.303154
0.303154
0.303154
0.303154
0.303154
0.303154
0.303154
0.303154
0.303154
0.303154
0.303154
0.303154
0.303154
0.303154
0.303154
0.303157
0.303158
0.30317
0.30317
1
1
1.03423
1.01986
0.989596
0.957336
0.927962
0.902795
0.881766
0.864335
0.84988
0.837839
0.827746
0.819231
0.812013
0.805882
0.800686
0.796317
0.792693
0.789745
0.787405
0.7856
0.784251
0.783276
0.782595
0.782137
0.781839
0.781652
0.781539
0.781473
0.781435
0.781415
0.781404
0.781398
0.781396
0.781394
0.781394
0.781393
0.781393
0.781393
0.781393
0.781393
0.781393
0.781393
0.781393
0.781393
0.781393
0.781393
0.781393
0.781394
0.781394
0.781394
0.781394
0.781394
0.781394
0.781394
0.781394
0.781394
0.781394
0.781394
0.781394
0.781394
0.781394
0.781394
0.781394
0.781394
0.781394
0.781394
0.781394
0.781394
0.781394
0.781394
0.781394
0.781394
0.781394
0.781394
0.781394
0.781394
0.781394
0.781394
0.781394
0.781394
0.781394
0.781394
0.781394
0.781394
0.781394
0.781394
0.781394
0.781394
0.781394
0.781394
0.781394
0.781394
0.781394
0.781394
0.781394
0.781394
0.781397
0.781397
0.781457
0.781457
1
1
1.05978
1.10938
1.13939
1.15483
1.16117
1.16234
1.16079
1.15792
1.1545
1.15096
1.14752
1.14429
1.14133
1.13865
1.13626
1.13416
1.13236
1.13083
1.12957
1.12856
1.12777
1.12718
1.12674
1.12644
1.12623
1.1261
1.12601
1.12596
1.12593
1.12591
1.1259
1.1259
1.1259
1.1259
1.1259
1.12589
1.12589
1.12589
1.12589
1.12589
1.12589
1.12589
1.12589
1.12589
1.12589
1.12589
1.1259
1.1259
1.1259
1.1259
1.1259
1.1259
1.1259
1.1259
1.1259
1.1259
1.1259
1.1259
1.1259
1.1259
1.1259
1.1259
1.1259
1.1259
1.1259
1.1259
1.1259
1.1259
1.1259
1.1259
1.1259
1.1259
1.1259
1.1259
1.1259
1.1259
1.1259
1.1259
1.1259
1.1259
1.1259
1.1259
1.1259
1.1259
1.1259
1.1259
1.1259
1.1259
1.1259
1.1259
1.1259
1.1259
1.1259
1.1259
1.1259
1.1259
1.1259
1.12589
1.12593
1.12593
1
1
1.05116
1.11659
1.17117
1.21172
1.24096
1.26225
1.27822
1.29056
1.30035
1.30827
1.31478
1.32019
1.32472
1.32852
1.33172
1.33438
1.33656
1.33833
1.33971
1.34076
1.34154
1.34209
1.34247
1.34272
1.34288
1.34298
1.34303
1.34306
1.34308
1.34309
1.3431
1.3431
1.3431
1.3431
1.3431
1.3431
1.3431
1.3431
1.3431
1.3431
1.3431
1.3431
1.3431
1.3431
1.3431
1.3431
1.3431
1.3431
1.3431
1.3431
1.3431
1.3431
1.3431
1.3431
1.3431
1.3431
1.3431
1.3431
1.3431
1.3431
1.3431
1.3431
1.3431
1.3431
1.3431
1.3431
1.3431
1.3431
1.3431
1.3431
1.3431
1.3431
1.3431
1.3431
1.3431
1.3431
1.3431
1.3431
1.3431
1.3431
1.3431
1.3431
1.3431
1.3431
1.3431
1.3431
1.3431
1.3431
1.3431
1.3431
1.3431
1.3431
1.3431
1.3431
1.3431
1.3431
1.3431
1.3431
1.34307
1.34307
1
1
1.0439
1.11044
1.17164
1.22103
1.25966
1.29019
1.31494
1.3355
1.3529
1.36782
1.3807
1.39188
1.4016
1.41004
1.41734
1.42359
1.42886
1.43323
1.43676
1.43954
1.44167
1.44323
1.44435
1.44513
1.44564
1.44597
1.44618
1.44631
1.44638
1.44642
1.44644
1.44645
1.44646
1.44646
1.44646
1.44646
1.44646
1.44646
1.44646
1.44646
1.44646
1.44646
1.44646
1.44646
1.44646
1.44646
1.44646
1.44646
1.44646
1.44646
1.44646
1.44646
1.44646
1.44646
1.44646
1.44646
1.44646
1.44646
1.44646
1.44646
1.44646
1.44646
1.44646
1.44646
1.44646
1.44646
1.44646
1.44646
1.44646
1.44646
1.44646
1.44646
1.44646
1.44646
1.44646
1.44646
1.44646
1.44646
1.44646
1.44646
1.44646
1.44646
1.44646
1.44646
1.44646
1.44646
1.44646
1.44646
1.44646
1.44646
1.44646
1.44646
1.44646
1.44646
1.44646
1.44646
1.44646
1.44646
1.44638
1.44638
1
1
1.0439
1.11044
1.17164
1.22103
1.25966
1.29019
1.31494
1.3355
1.3529
1.36782
1.3807
1.39188
1.4016
1.41004
1.41734
1.42359
1.42886
1.43323
1.43676
1.43954
1.44167
1.44323
1.44435
1.44513
1.44564
1.44597
1.44618
1.44631
1.44638
1.44642
1.44644
1.44645
1.44646
1.44646
1.44646
1.44646
1.44646
1.44646
1.44646
1.44646
1.44646
1.44646
1.44646
1.44646
1.44646
1.44646
1.44646
1.44646
1.44646
1.44646
1.44646
1.44646
1.44646
1.44646
1.44646
1.44646
1.44646
1.44646
1.44646
1.44646
1.44646
1.44646
1.44646
1.44646
1.44646
1.44646
1.44646
1.44646
1.44646
1.44646
1.44646
1.44646
1.44646
1.44646
1.44646
1.44646
1.44646
1.44646
1.44646
1.44646
1.44646
1.44646
1.44646
1.44646
1.44646
1.44646
1.44646
1.44646
1.44646
1.44646
1.44646
1.44646
1.44646
1.44646
1.44646
1.44646
1.44646
1.44646
1.44638
1.44638
1
1
1.05116
1.11659
1.17117
1.21172
1.24096
1.26225
1.27822
1.29056
1.30035
1.30827
1.31478
1.32019
1.32472
1.32852
1.33172
1.33438
1.33656
1.33833
1.33971
1.34077
1.34154
1.3421
1.34247
1.34272
1.34288
1.34298
1.34303
1.34306
1.34308
1.34309
1.3431
1.3431
1.3431
1.3431
1.3431
1.3431
1.3431
1.3431
1.3431
1.3431
1.3431
1.3431
1.3431
1.3431
1.3431
1.3431
1.3431
1.3431
1.3431
1.3431
1.3431
1.3431
1.3431
1.3431
1.3431
1.3431
1.3431
1.3431
1.3431
1.3431
1.3431
1.3431
1.3431
1.3431
1.3431
1.3431
1.3431
1.3431
1.3431
1.3431
1.3431
1.3431
1.3431
1.3431
1.3431
1.3431
1.3431
1.3431
1.3431
1.3431
1.3431
1.3431
1.3431
1.3431
1.3431
1.3431
1.3431
1.3431
1.3431
1.3431
1.3431
1.3431
1.3431
1.3431
1.3431
1.3431
1.3431
1.3431
1.34307
1.34307
1
1
1.05978
1.10938
1.13939
1.15483
1.16117
1.16234
1.16079
1.15792
1.1545
1.15096
1.14752
1.14429
1.14133
1.13865
1.13626
1.13417
1.13236
1.13083
1.12957
1.12856
1.12777
1.12718
1.12674
1.12644
1.12623
1.1261
1.12601
1.12596
1.12593
1.12591
1.1259
1.1259
1.1259
1.1259
1.1259
1.12589
1.12589
1.12589
1.12589
1.12589
1.12589
1.12589
1.12589
1.12589
1.12589
1.12589
1.12589
1.12589
1.12589
1.12589
1.12589
1.1259
1.1259
1.1259
1.1259
1.1259
1.1259
1.1259
1.1259
1.1259
1.1259
1.1259
1.1259
1.1259
1.1259
1.1259
1.1259
1.1259
1.1259
1.1259
1.1259
1.1259
1.1259
1.1259
1.1259
1.1259
1.1259
1.1259
1.1259
1.1259
1.1259
1.1259
1.1259
1.1259
1.1259
1.1259
1.1259
1.1259
1.1259
1.1259
1.1259
1.1259
1.1259
1.1259
1.1259
1.1259
1.1259
1.12589
1.12593
1.12593
1
1
1.03423
1.01986
0.989596
0.957336
0.927962
0.902795
0.881766
0.864335
0.849881
0.83784
0.827746
0.819232
0.812014
0.805883
0.800686
0.796317
0.792693
0.789745
0.787405
0.7856
0.784251
0.783276
0.782595
0.782137
0.781839
0.781652
0.781539
0.781473
0.781435
0.781415
0.781404
0.781399
0.781396
0.781394
0.781394
0.781394
0.781393
0.781393
0.781393
0.781393
0.781393
0.781393
0.781393
0.781393
0.781393
0.781393
0.781393
0.781394
0.781394
0.781394
0.781394
0.781394
0.781394
0.781394
0.781394
0.781394
0.781394
0.781394
0.781394
0.781394
0.781394
0.781394
0.781394
0.781394
0.781394
0.781394
0.781394
0.781394
0.781394
0.781394
0.781394
0.781394
0.781394
0.781394
0.781394
0.781394
0.781394
0.781394
0.781394
0.781394
0.781394
0.781394
0.781394
0.781394
0.781394
0.781394
0.781394
0.781394
0.781394
0.781394
0.781394
0.781394
0.781394
0.781394
0.781394
0.781394
0.781397
0.781396
0.781456
0.781456
1
1
0.810924
0.643743
0.528209
0.455074
0.41025
0.382421
0.364296
0.351698
0.342371
0.335109
0.329249
0.324407
0.320345
0.31691
0.314004
0.311558
0.309526
0.30787
0.306553
0.305535
0.304773
0.304221
0.303836
0.303576
0.303408
0.303301
0.303237
0.303199
0.303178
0.303166
0.30316
0.303157
0.303155
0.303155
0.303154
0.303154
0.303154
0.303154
0.303154
0.303154
0.303154
0.303154
0.303154
0.303154
0.303154
0.303154
0.303154
0.303154
0.303154
0.303154
0.303154
0.303154
0.303154
0.303154
0.303154
0.303154
0.303154
0.303154
0.303154
0.303154
0.303154
0.303154
0.303154
0.303154
0.303154
0.303154
0.303154
0.303154
0.303154
0.303154
0.303154
0.303154
0.303154
0.303154
0.303154
0.303154
0.303154
0.303154
0.303154
0.303154
0.303154
0.303154
0.303154
0.303154
0.303154
0.303154
0.303154
0.303154
0.303154
0.303154
0.303154
0.303154
0.303154
0.303154
0.303154
0.303154
0.303157
0.303158
0.30317
0.30317
1
-1
-0.810924
-0.643743
-0.528209
-0.455074
-0.41025
-0.382421
-0.364296
-0.351698
-0.342371
-0.335109
-0.329249
-0.324407
-0.320345
-0.31691
-0.314004
-0.311558
-0.309526
-0.30787
-0.306553
-0.305535
-0.304773
-0.304221
-0.303836
-0.303576
-0.303408
-0.303301
-0.303237
-0.303199
-0.303178
-0.303166
-0.30316
-0.303157
-0.303155
-0.303155
-0.303154
-0.303154
-0.303154
-0.303154
-0.303154
-0.303154
-0.303154
-0.303154
-0.303154
-0.303154
-0.303154
-0.303154
-0.303154
-0.303154
-0.303154
-0.303154
-0.303154
-0.303154
-0.303154
-0.303154
-0.303154
-0.303154
-0.303154
-0.303154
-0.303154
-0.303154
-0.303154
-0.303154
-0.303154
-0.303154
-0.303154
-0.303154
-0.303154
-0.303154
-0.303154
-0.303154
-0.303154
-0.303154
-0.303154
-0.303154
-0.303154
-0.303154
-0.303154
-0.303154
-0.303154
-0.303154
-0.303154
-0.303154
-0.303154
-0.303154
-0.303154
-0.303154
-0.303154
-0.303154
-0.303154
-0.303154
-0.303154
-0.303154
-0.303154
-0.303154
-0.303154
-0.303154
-0.303157
-0.303158
-0.30317
-0.30317
-1
