# vtk DataFile Version 2.0
FlowField
ASCII
DATASET STRUCTURED_GRID
DIMENSIONS 101 11 1 
POINTS 1111 double
0 0 0
0.3 0 0
0.6 0 0
0.9 0 0
1.2 0 0
1.5 0 0
1.8 0 0
2.1 0 0
2.4 0 0
2.7 0 0
3 0 0
3.3 0 0
3.6 0 0
3.9 0 0
4.2 0 0
4.5 0 0
4.8 0 0
5.1 0 0
5.4 0 0
5.7 0 0
6 0 0
6.3 0 0
6.6 0 0
6.9 0 0
7.2 0 0
7.5 0 0
7.8 0 0
8.1 0 0
8.4 0 0
8.7 0 0
9 0 0
9.3 0 0
9.6 0 0
9.9 0 0
10.2 0 0
10.5 0 0
10.8 0 0
11.1 0 0
11.4 0 0
11.7 0 0
12 0 0
12.3 0 0
12.6 0 0
12.9 0 0
13.2 0 0
13.5 0 0
13.8 0 0
14.1 0 0
14.4 0 0
14.7 0 0
15 0 0
15.3 0 0
15.6 0 0
15.9 0 0
16.2 0 0
16.5 0 0
16.8 0 0
17.1 0 0
17.4 0 0
17.7 0 0
18 0 0
18.3 0 0
18.6 0 0
18.9 0 0
19.2 0 0
19.5 0 0
19.8 0 0
20.1 0 0
20.4 0 0
20.7 0 0
21 0 0
21.3 0 0
21.6 0 0
21.9 0 0
22.2 0 0
22.5 0 0
22.8 0 0
23.1 0 0
23.4 0 0
23.7 0 0
24 0 0
24.3 0 0
24.6 0 0
24.9 0 0
25.2 0 0
25.5 0 0
25.8 0 0
26.1 0 0
26.4 0 0
26.7 0 0
27 0 0
27.3 0 0
27.6 0 0
27.9 0 0
28.2 0 0
28.5 0 0
28.8 0 0
29.1 0 0
29.4 0 0
29.7 0 0
30 0 0
0 0.1 0
0.3 0.1 0
0.6 0.1 0
0.9 0.1 0
1.2 0.1 0
1.5 0.1 0
1.8 0.1 0
2.1 0.1 0
2.4 0.1 0
2.7 0.1 0
3 0.1 0
3.3 0.1 0
3.6 0.1 0
3.9 0.1 0
4.2 0.1 0
4.5 0.1 0
4.8 0.1 0
5.1 0.1 0
5.4 0.1 0
5.7 0.1 0
6 0.1 0
6.3 0.1 0
6.6 0.1 0
6.9 0.1 0
7.2 0.1 0
7.5 0.1 0
7.8 0.1 0
8.1 0.1 0
8.4 0.1 0
8.7 0.1 0
9 0.1 0
9.3 0.1 0
9.6 0.1 0
9.9 0.1 0
10.2 0.1 0
10.5 0.1 0
10.8 0.1 0
11.1 0.1 0
11.4 0.1 0
11.7 0.1 0
12 0.1 0
12.3 0.1 0
12.6 0.1 0
12.9 0.1 0
13.2 0.1 0
13.5 0.1 0
13.8 0.1 0
14.1 0.1 0
14.4 0.1 0
14.7 0.1 0
15 0.1 0
15.3 0.1 0
15.6 0.1 0
15.9 0.1 0
16.2 0.1 0
16.5 0.1 0
16.8 0.1 0
17.1 0.1 0
17.4 0.1 0
17.7 0.1 0
18 0.1 0
18.3 0.1 0
18.6 0.1 0
18.9 0.1 0
19.2 0.1 0
19.5 0.1 0
19.8 0.1 0
20.1 0.1 0
20.4 0.1 0
20.7 0.1 0
21 0.1 0
21.3 0.1 0
21.6 0.1 0
21.9 0.1 0
22.2 0.1 0
22.5 0.1 0
22.8 0.1 0
23.1 0.1 0
23.4 0.1 0
23.7 0.1 0
24 0.1 0
24.3 0.1 0
24.6 0.1 0
24.9 0.1 0
25.2 0.1 0
25.5 0.1 0
25.8 0.1 0
26.1 0.1 0
26.4 0.1 0
26.7 0.1 0
27 0.1 0
27.3 0.1 0
27.6 0.1 0
27.9 0.1 0
28.2 0.1 0
28.5 0.1 0
28.8 0.1 0
29.1 0.1 0
29.4 0.1 0
29.7 0.1 0
30 0.1 0
0 0.2 0
0.3 0.2 0
0.6 0.2 0
0.9 0.2 0
1.2 0.2 0
1.5 0.2 0
1.8 0.2 0
2.1 0.2 0
2.4 0.2 0
2.7 0.2 0
3 0.2 0
3.3 0.2 0
3.6 0.2 0
3.9 0.2 0
4.2 0.2 0
4.5 0.2 0
4.8 0.2 0
5.1 0.2 0
5.4 0.2 0
5.7 0.2 0
6 0.2 0
6.3 0.2 0
6.6 0.2 0
6.9 0.2 0
7.2 0.2 0
7.5 0.2 0
7.8 0.2 0
8.1 0.2 0
8.4 0.2 0
8.7 0.2 0
9 0.2 0
9.3 0.2 0
9.6 0.2 0
9.9 0.2 0
10.2 0.2 0
10.5 0.2 0
10.8 0.2 0
11.1 0.2 0
11.4 0.2 0
11.7 0.2 0
12 0.2 0
12.3 0.2 0
12.6 0.2 0
12.9 0.2 0
13.2 0.2 0
13.5 0.2 0
13.8 0.2 0
14.1 0.2 0
14.4 0.2 0
14.7 0.2 0
15 0.2 0
15.3 0.2 0
15.6 0.2 0
15.9 0.2 0
16.2 0.2 0
16.5 0.2 0
16.8 0.2 0
17.1 0.2 0
17.4 0.2 0
17.7 0.2 0
18 0.2 0
18.3 0.2 0
18.6 0.2 0
18.9 0.2 0
19.2 0.2 0
19.5 0.2 0
19.8 0.2 0
20.1 0.2 0
20.4 0.2 0
20.7 0.2 0
21 0.2 0
21.3 0.2 0
21.6 0.2 0
21.9 0.2 0
22.2 0.2 0
22.5 0.2 0
22.8 0.2 0
23.1 0.2 0
23.4 0.2 0
23.7 0.2 0
24 0.2 0
24.3 0.2 0
24.6 0.2 0
24.9 0.2 0
25.2 0.2 0
25.5 0.2 0
25.8 0.2 0
26.1 0.2 0
26.4 0.2 0
26.7 0.2 0
27 0.2 0
27.3 0.2 0
27.6 0.2 0
27.9 0.2 0
28.2 0.2 0
28.5 0.2 0
28.8 0.2 0
29.1 0.2 0
29.4 0.2 0
29.7 0.2 0
30 0.2 0
0 0.3 0
0.3 0.3 0
0.6 0.3 0
0.9 0.3 0
1.2 0.3 0
1.5 0.3 0
1.8 0.3 0
2.1 0.3 0
2.4 0.3 0
2.7 0.3 0
3 0.3 0
3.3 0.3 0
3.6 0.3 0
3.9 0.3 0
4.2 0.3 0
4.5 0.3 0
4.8 0.3 0
5.1 0.3 0
5.4 0.3 0
5.7 0.3 0
6 0.3 0
6.3 0.3 0
6.6 0.3 0
6.9 0.3 0
7.2 0.3 0
7.5 0.3 0
7.8 0.3 0
8.1 0.3 0
8.4 0.3 0
8.7 0.3 0
9 0.3 0
9.3 0.3 0
9.6 0.3 0
9.9 0.3 0
10.2 0.3 0
10.5 0.3 0
10.8 0.3 0
11.1 0.3 0
11.4 0.3 0
11.7 0.3 0
12 0.3 0
12.3 0.3 0
12.6 0.3 0
12.9 0.3 0
13.2 0.3 0
13.5 0.3 0
13.8 0.3 0
14.1 0.3 0
14.4 0.3 0
14.7 0.3 0
15 0.3 0
15.3 0.3 0
15.6 0.3 0
15.9 0.3 0
16.2 0.3 0
16.5 0.3 0
16.8 0.3 0
17.1 0.3 0
17.4 0.3 0
17.7 0.3 0
18 0.3 0
18.3 0.3 0
18.6 0.3 0
18.9 0.3 0
19.2 0.3 0
19.5 0.3 0
19.8 0.3 0
20.1 0.3 0
20.4 0.3 0
20.7 0.3 0
21 0.3 0
21.3 0.3 0
21.6 0.3 0
21.9 0.3 0
22.2 0.3 0
22.5 0.3 0
22.8 0.3 0
23.1 0.3 0
23.4 0.3 0
23.7 0.3 0
24 0.3 0
24.3 0.3 0
24.6 0.3 0
24.9 0.3 0
25.2 0.3 0
25.5 0.3 0
25.8 0.3 0
26.1 0.3 0
26.4 0.3 0
26.7 0.3 0
27 0.3 0
27.3 0.3 0
27.6 0.3 0
27.9 0.3 0
28.2 0.3 0
28.5 0.3 0
28.8 0.3 0
29.1 0.3 0
29.4 0.3 0
29.7 0.3 0
30 0.3 0
0 0.4 0
0.3 0.4 0
0.6 0.4 0
0.9 0.4 0
1.2 0.4 0
1.5 0.4 0
1.8 0.4 0
2.1 0.4 0
2.4 0.4 0
2.7 0.4 0
3 0.4 0
3.3 0.4 0
3.6 0.4 0
3.9 0.4 0
4.2 0.4 0
4.5 0.4 0
4.8 0.4 0
5.1 0.4 0
5.4 0.4 0
5.7 0.4 0
6 0.4 0
6.3 0.4 0
6.6 0.4 0
6.9 0.4 0
7.2 0.4 0
7.5 0.4 0
7.8 0.4 0
8.1 0.4 0
8.4 0.4 0
8.7 0.4 0
9 0.4 0
9.3 0.4 0
9.6 0.4 0
9.9 0.4 0
10.2 0.4 0
10.5 0.4 0
10.8 0.4 0
11.1 0.4 0
11.4 0.4 0
11.7 0.4 0
12 0.4 0
12.3 0.4 0
12.6 0.4 0
12.9 0.4 0
13.2 0.4 0
13.5 0.4 0
13.8 0.4 0
14.1 0.4 0
14.4 0.4 0
14.7 0.4 0
15 0.4 0
15.3 0.4 0
15.6 0.4 0
15.9 0.4 0
16.2 0.4 0
16.5 0.4 0
16.8 0.4 0
17.1 0.4 0
17.4 0.4 0
17.7 0.4 0
18 0.4 0
18.3 0.4 0
18.6 0.4 0
18.9 0.4 0
19.2 0.4 0
19.5 0.4 0
19.8 0.4 0
20.1 0.4 0
20.4 0.4 0
20.7 0.4 0
21 0.4 0
21.3 0.4 0
21.6 0.4 0
21.9 0.4 0
22.2 0.4 0
22.5 0.4 0
22.8 0.4 0
23.1 0.4 0
23.4 0.4 0
23.7 0.4 0
24 0.4 0
24.3 0.4 0
24.6 0.4 0
24.9 0.4 0
25.2 0.4 0
25.5 0.4 0
25.8 0.4 0
26.1 0.4 0
26.4 0.4 0
26.7 0.4 0
27 0.4 0
27.3 0.4 0
27.6 0.4 0
27.9 0.4 0
28.2 0.4 0
28.5 0.4 0
28.8 0.4 0
29.1 0.4 0
29.4 0.4 0
29.7 0.4 0
30 0.4 0
0 0.5 0
0.3 0.5 0
0.6 0.5 0
0.9 0.5 0
1.2 0.5 0
1.5 0.5 0
1.8 0.5 0
2.1 0.5 0
2.4 0.5 0
2.7 0.5 0
3 0.5 0
3.3 0.5 0
3.6 0.5 0
3.9 0.5 0
4.2 0.5 0
4.5 0.5 0
4.8 0.5 0
5.1 0.5 0
5.4 0.5 0
5.7 0.5 0
6 0.5 0
6.3 0.5 0
6.6 0.5 0
6.9 0.5 0
7.2 0.5 0
7.5 0.5 0
7.8 0.5 0
8.1 0.5 0
8.4 0.5 0
8.7 0.5 0
9 0.5 0
9.3 0.5 0
9.6 0.5 0
9.9 0.5 0
10.2 0.5 0
10.5 0.5 0
10.8 0.5 0
11.1 0.5 0
11.4 0.5 0
11.7 0.5 0
12 0.5 0
12.3 0.5 0
12.6 0.5 0
12.9 0.5 0
13.2 0.5 0
13.5 0.5 0
13.8 0.5 0
14.1 0.5 0
14.4 0.5 0
14.7 0.5 0
15 0.5 0
15.3 0.5 0
15.6 0.5 0
15.9 0.5 0
16.2 0.5 0
16.5 0.5 0
16.8 0.5 0
17.1 0.5 0
17.4 0.5 0
17.7 0.5 0
18 0.5 0
18.3 0.5 0
18.6 0.5 0
18.9 0.5 0
19.2 0.5 0
19.5 0.5 0
19.8 0.5 0
20.1 0.5 0
20.4 0.5 0
20.7 0.5 0
21 0.5 0
21.3 0.5 0
21.6 0.5 0
21.9 0.5 0
22.2 0.5 0
22.5 0.5 0
22.8 0.5 0
23.1 0.5 0
23.4 0.5 0
23.7 0.5 0
24 0.5 0
24.3 0.5 0
24.6 0.5 0
24.9 0.5 0
25.2 0.5 0
25.5 0.5 0
25.8 0.5 0
26.1 0.5 0
26.4 0.5 0
26.7 0.5 0
27 0.5 0
27.3 0.5 0
27.6 0.5 0
27.9 0.5 0
28.2 0.5 0
28.5 0.5 0
28.8 0.5 0
29.1 0.5 0
29.4 0.5 0
29.7 0.5 0
30 0.5 0
0 0.6 0
0.3 0.6 0
0.6 0.6 0
0.9 0.6 0
1.2 0.6 0
1.5 0.6 0
1.8 0.6 0
2.1 0.6 0
2.4 0.6 0
2.7 0.6 0
3 0.6 0
3.3 0.6 0
3.6 0.6 0
3.9 0.6 0
4.2 0.6 0
4.5 0.6 0
4.8 0.6 0
5.1 0.6 0
5.4 0.6 0
5.7 0.6 0
6 0.6 0
6.3 0.6 0
6.6 0.6 0
6.9 0.6 0
7.2 0.6 0
7.5 0.6 0
7.8 0.6 0
8.1 0.6 0
8.4 0.6 0
8.7 0.6 0
9 0.6 0
9.3 0.6 0
9.6 0.6 0
9.9 0.6 0
10.2 0.6 0
10.5 0.6 0
10.8 0.6 0
11.1 0.6 0
11.4 0.6 0
11.7 0.6 0
12 0.6 0
12.3 0.6 0
12.6 0.6 0
12.9 0.6 0
13.2 0.6 0
13.5 0.6 0
13.8 0.6 0
14.1 0.6 0
14.4 0.6 0
14.7 0.6 0
15 0.6 0
15.3 0.6 0
15.6 0.6 0
15.9 0.6 0
16.2 0.6 0
16.5 0.6 0
16.8 0.6 0
17.1 0.6 0
17.4 0.6 0
17.7 0.6 0
18 0.6 0
18.3 0.6 0
18.6 0.6 0
18.9 0.6 0
19.2 0.6 0
19.5 0.6 0
19.8 0.6 0
20.1 0.6 0
20.4 0.6 0
20.7 0.6 0
21 0.6 0
21.3 0.6 0
21.6 0.6 0
21.9 0.6 0
22.2 0.6 0
22.5 0.6 0
22.8 0.6 0
23.1 0.6 0
23.4 0.6 0
23.7 0.6 0
24 0.6 0
24.3 0.6 0
24.6 0.6 0
24.9 0.6 0
25.2 0.6 0
25.5 0.6 0
25.8 0.6 0
26.1 0.6 0
26.4 0.6 0
26.7 0.6 0
27 0.6 0
27.3 0.6 0
27.6 0.6 0
27.9 0.6 0
28.2 0.6 0
28.5 0.6 0
28.8 0.6 0
29.1 0.6 0
29.4 0.6 0
29.7 0.6 0
30 0.6 0
0 0.7 0
0.3 0.7 0
0.6 0.7 0
0.9 0.7 0
1.2 0.7 0
1.5 0.7 0
1.8 0.7 0
2.1 0.7 0
2.4 0.7 0
2.7 0.7 0
3 0.7 0
3.3 0.7 0
3.6 0.7 0
3.9 0.7 0
4.2 0.7 0
4.5 0.7 0
4.8 0.7 0
5.1 0.7 0
5.4 0.7 0
5.7 0.7 0
6 0.7 0
6.3 0.7 0
6.6 0.7 0
6.9 0.7 0
7.2 0.7 0
7.5 0.7 0
7.8 0.7 0
8.1 0.7 0
8.4 0.7 0
8.7 0.7 0
9 0.7 0
9.3 0.7 0
9.6 0.7 0
9.9 0.7 0
10.2 0.7 0
10.5 0.7 0
10.8 0.7 0
11.1 0.7 0
11.4 0.7 0
11.7 0.7 0
12 0.7 0
12.3 0.7 0
12.6 0.7 0
12.9 0.7 0
13.2 0.7 0
13.5 0.7 0
13.8 0.7 0
14.1 0.7 0
14.4 0.7 0
14.7 0.7 0
15 0.7 0
15.3 0.7 0
15.6 0.7 0
15.9 0.7 0
16.2 0.7 0
16.5 0.7 0
16.8 0.7 0
17.1 0.7 0
17.4 0.7 0
17.7 0.7 0
18 0.7 0
18.3 0.7 0
18.6 0.7 0
18.9 0.7 0
19.2 0.7 0
19.5 0.7 0
19.8 0.7 0
20.1 0.7 0
20.4 0.7 0
20.7 0.7 0
21 0.7 0
21.3 0.7 0
21.6 0.7 0
21.9 0.7 0
22.2 0.7 0
22.5 0.7 0
22.8 0.7 0
23.1 0.7 0
23.4 0.7 0
23.7 0.7 0
24 0.7 0
24.3 0.7 0
24.6 0.7 0
24.9 0.7 0
25.2 0.7 0
25.5 0.7 0
25.8 0.7 0
26.1 0.7 0
26.4 0.7 0
26.7 0.7 0
27 0.7 0
27.3 0.7 0
27.6 0.7 0
27.9 0.7 0
28.2 0.7 0
28.5 0.7 0
28.8 0.7 0
29.1 0.7 0
29.4 0.7 0
29.7 0.7 0
30 0.7 0
0 0.8 0
0.3 0.8 0
0.6 0.8 0
0.9 0.8 0
1.2 0.8 0
1.5 0.8 0
1.8 0.8 0
2.1 0.8 0
2.4 0.8 0
2.7 0.8 0
3 0.8 0
3.3 0.8 0
3.6 0.8 0
3.9 0.8 0
4.2 0.8 0
4.5 0.8 0
4.8 0.8 0
5.1 0.8 0
5.4 0.8 0
5.7 0.8 0
6 0.8 0
6.3 0.8 0
6.6 0.8 0
6.9 0.8 0
7.2 0.8 0
7.5 0.8 0
7.8 0.8 0
8.1 0.8 0
8.4 0.8 0
8.7 0.8 0
9 0.8 0
9.3 0.8 0
9.6 0.8 0
9.9 0.8 0
10.2 0.8 0
10.5 0.8 0
10.8 0.8 0
11.1 0.8 0
11.4 0.8 0
11.7 0.8 0
12 0.8 0
12.3 0.8 0
12.6 0.8 0
12.9 0.8 0
13.2 0.8 0
13.5 0.8 0
13.8 0.8 0
14.1 0.8 0
14.4 0.8 0
14.7 0.8 0
15 0.8 0
15.3 0.8 0
15.6 0.8 0
15.9 0.8 0
16.2 0.8 0
16.5 0.8 0
16.8 0.8 0
17.1 0.8 0
17.4 0.8 0
17.7 0.8 0
18 0.8 0
18.3 0.8 0
18.6 0.8 0
18.9 0.8 0
19.2 0.8 0
19.5 0.8 0
19.8 0.8 0
20.1 0.8 0
20.4 0.8 0
20.7 0.8 0
21 0.8 0
21.3 0.8 0
21.6 0.8 0
21.9 0.8 0
22.2 0.8 0
22.5 0.8 0
22.8 0.8 0
23.1 0.8 0
23.4 0.8 0
23.7 0.8 0
24 0.8 0
24.3 0.8 0
24.6 0.8 0
24.9 0.8 0
25.2 0.8 0
25.5 0.8 0
25.8 0.8 0
26.1 0.8 0
26.4 0.8 0
26.7 0.8 0
27 0.8 0
27.3 0.8 0
27.6 0.8 0
27.9 0.8 0
28.2 0.8 0
28.5 0.8 0
28.8 0.8 0
29.1 0.8 0
29.4 0.8 0
29.7 0.8 0
30 0.8 0
0 0.9 0
0.3 0.9 0
0.6 0.9 0
0.9 0.9 0
1.2 0.9 0
1.5 0.9 0
1.8 0.9 0
2.1 0.9 0
2.4 0.9 0
2.7 0.9 0
3 0.9 0
3.3 0.9 0
3.6 0.9 0
3.9 0.9 0
4.2 0.9 0
4.5 0.9 0
4.8 0.9 0
5.1 0.9 0
5.4 0.9 0
5.7 0.9 0
6 0.9 0
6.3 0.9 0
6.6 0.9 0
6.9 0.9 0
7.2 0.9 0
7.5 0.9 0
7.8 0.9 0
8.1 0.9 0
8.4 0.9 0
8.7 0.9 0
9 0.9 0
9.3 0.9 0
9.6 0.9 0
9.9 0.9 0
10.2 0.9 0
10.5 0.9 0
10.8 0.9 0
11.1 0.9 0
11.4 0.9 0
11.7 0.9 0
12 0.9 0
12.3 0.9 0
12.6 0.9 0
12.9 0.9 0
13.2 0.9 0
13.5 0.9 0
13.8 0.9 0
14.1 0.9 0
14.4 0.9 0
14.7 0.9 0
15 0.9 0
15.3 0.9 0
15.6 0.9 0
15.9 0.9 0
16.2 0.9 0
16.5 0.9 0
16.8 0.9 0
17.1 0.9 0
17.4 0.9 0
17.7 0.9 0
18 0.9 0
18.3 0.9 0
18.6 0.9 0
18.9 0.9 0
19.2 0.9 0
19.5 0.9 0
19.8 0.9 0
20.1 0.9 0
20.4 0.9 0
20.7 0.9 0
21 0.9 0
21.3 0.9 0
21.6 0.9 0
21.9 0.9 0
22.2 0.9 0
22.5 0.9 0
22.8 0.9 0
23.1 0.9 0
23.4 0.9 0
23.7 0.9 0
24 0.9 0
24.3 0.9 0
24.6 0.9 0
24.9 0.9 0
25.2 0.9 0
25.5 0.9 0
25.8 0.9 0
26.1 0.9 0
26.4 0.9 0
26.7 0.9 0
27 0.9 0
27.3 0.9 0
27.6 0.9 0
27.9 0.9 0
28.2 0.9 0
28.5 0.9 0
28.8 0.9 0
29.1 0.9 0
29.4 0.9 0
29.7 0.9 0
30 0.9 0
0 1 0
0.3 1 0
0.6 1 0
0.9 1 0
1.2 1 0
1.5 1 0
1.8 1 0
2.1 1 0
2.4 1 0
2.7 1 0
3 1 0
3.3 1 0
3.6 1 0
3.9 1 0
4.2 1 0
4.5 1 0
4.8 1 0
5.1 1 0
5.4 1 0
5.7 1 0
6 1 0
6.3 1 0
6.6 1 0
6.9 1 0
7.2 1 0
7.5 1 0
7.8 1 0
8.1 1 0
8.4 1 0
8.7 1 0
9 1 0
9.3 1 0
9.6 1 0
9.9 1 0
10.2 1 0
10.5 1 0
10.8 1 0
11.1 1 0
11.4 1 0
11.7 1 0
12 1 0
12.3 1 0
12.6 1 0
12.9 1 0
13.2 1 0
13.5 1 0
13.8 1 0
14.1 1 0
14.4 1 0
14.7 1 0
15 1 0
15.3 1 0
15.6 1 0
15.9 1 0
16.2 1 0
16.5 1 0
16.8 1 0
17.1 1 0
17.4 1 0
17.7 1 0
18 1 0
18.3 1 0
18.6 1 0
18.9 1 0
19.2 1 0
19.5 1 0
19.8 1 0
20.1 1 0
20.4 1 0
20.7 1 0
21 1 0
21.3 1 0
21.6 1 0
21.9 1 0
22.2 1 0
22.5 1 0
22.8 1 0
23.1 1 0
23.4 1 0
23.7 1 0
24 1 0
24.3 1 0
24.6 1 0
24.9 1 0
25.2 1 0
25.5 1 0
25.8 1 0
26.1 1 0
26.4 1 0
26.7 1 0
27 1 0
27.3 1 0
27.6 1 0
27.9 1 0
28.2 1 0
28.5 1 0
28.8 1 0
29.1 1 0
29.4 1 0
29.7 1 0
30 1 0

POINT_DATA 1111

SCALARS v double
LOOKUP_TABLE default
0
0
0
0
0
0
0
0
0
0
0
0
0
0
0
0
0
0
0
0
0
0
0
0
0
0
0
0
0
0
0
0
0
0
0
0
0
0
0
0
0
0
0
0
0
0
0
0
0
0
0
0
0
0
0
0
0
0
0
0
0
0
0
0
0
0
0
0
0
0
0
0
0
0
0
0
0
0
0
0
0
0
0
0
0
0
0
0
0
0
0
0
0
0
0
0
0
0
0
0
0
-0.0359858
0.0359858
0.0367618
0.0309383
0.0247936
0.0193687
0.0148922
0.0113561
0.00865026
0.00662566
0.00513159
0.00403563
0.0032309
0.00263583
0.00219042
0.00185164
0.00158905
0.00138139
0.0012138
0.00107593
0.000960494
0.000862341
0.000777777
0.000704111
0.000639352
0.000581993
0.000530878
0.000485095
0.000443918
0.000406753
0.000373111
0.000342582
0.000314817
0.000289519
0.00026643
0.000245328
0.000226016
0.000208322
0.000192093
0.000177196
0.000163509
0.000150925
0.000139347
0.000128689
0.000118872
0.000109825
0.000101484
9.37921e-05
8.66951e-05
8.01454e-05
7.40989e-05
6.85156e-05
6.33589e-05
5.85951e-05
5.41936e-05
5.0126e-05
4.63665e-05
4.28913e-05
3.96785e-05
3.67079e-05
3.39611e-05
3.14209e-05
2.90717e-05
2.68988e-05
2.4889e-05
2.303e-05
2.13102e-05
1.97192e-05
1.82473e-05
1.68855e-05
1.56256e-05
1.44599e-05
1.33813e-05
1.23832e-05
1.14597e-05
1.06052e-05
9.81447e-06
9.08275e-06
8.40564e-06
7.77904e-06
7.1992e-06
6.6626e-06
6.16603e-06
5.70648e-06
5.28121e-06
4.88764e-06
4.52342e-06
4.18634e-06
3.8744e-06
3.5857e-06
3.31857e-06
3.07113e-06
2.84291e-06
2.62899e-06
2.43991e-06
2.23536e-06
2.13221e-06
1.75568e-06
1.99951e-06
3.85037e-12
3.85037e-12
-0.0259716
0.0259716
0.03387
0.0318859
0.0277092
0.0232683
0.0192106
0.0157606
0.0129474
0.0107074
0.00894299
0.00755455
0.00645541
0.00557599
0.00486303
0.00427675
0.00378787
0.00337488
0.00302191
0.00271715
0.00245169
0.00221874
0.00201302
0.00183037
0.00166744
0.00152154
0.00139042
0.00127225
0.00116545
0.00106871
0.000980889
0.000901025
0.000828272
0.000761896
0.000701256
0.000645788
0.000594993
0.000548431
0.000505711
0.000466483
0.000430435
0.000397286
0.000366785
0.000338705
0.00031284
0.000289006
0.000267033
0.00024677
0.000228076
0.000210824
0.0001949
0.000180198
0.00016662
0.000154078
0.000142492
0.000131786
0.000121891
0.000112747
0.000104293
9.64783e-05
8.92526e-05
8.25713e-05
7.63929e-05
7.0679e-05
6.53943e-05
6.05064e-05
5.59852e-05
5.18029e-05
4.7934e-05
4.43548e-05
4.10436e-05
3.79801e-05
3.51458e-05
3.25233e-05
3.00969e-05
2.78518e-05
2.57744e-05
2.38522e-05
2.20735e-05
2.04276e-05
1.89045e-05
1.74951e-05
1.61908e-05
1.49839e-05
1.3867e-05
1.28334e-05
1.18769e-05
1.09917e-05
1.01725e-05
9.41445e-06
8.71291e-06
8.0635e-06
7.46318e-06
6.9049e-06
6.39806e-06
5.89181e-06
5.54225e-06
4.75739e-06
5.16877e-06
1.79723e-11
1.79723e-11
-0.0142106
0.0142106
0.0209505
0.0208659
0.0189118
0.0164968
0.0141327
0.0120299
0.0102539
0.008795
0.00761042
0.00664859
0.00586162
0.0052098
0.00466221
0.00419555
0.0037926
0.00344064
0.00313026
0.00285439
0.00260764
0.00238584
0.00218564
0.00200437
0.00183981
0.00169009
0.00155362
0.00142905
0.00131519
0.00121099
0.00111555
0.00102804
0.000947735
0.000873997
0.00080624
0.000743942
0.000686631
0.000633881
0.000585308
0.000540561
0.000499323
0.000461306
0.000426246
0.000393904
0.000364061
0.000336518
0.00031109
0.000287612
0.000265928
0.000245899
0.000227395
0.000210297
0.000194497
0.000179894
0.000166396
0.000153918
0.000142382
0.000131716
0.000121854
0.000112733
0.000104299
9.64978e-05
8.92828e-05
8.26092e-05
7.6436e-05
7.07256e-05
6.5443e-05
6.0556e-05
5.60348e-05
5.18519e-05
4.79819e-05
4.44012e-05
4.10882e-05
3.80228e-05
3.51864e-05
3.25619e-05
3.01334e-05
2.78862e-05
2.58068e-05
2.38826e-05
2.2102e-05
2.04542e-05
1.89294e-05
1.75183e-05
1.62125e-05
1.50041e-05
1.38858e-05
1.28509e-05
1.18932e-05
1.10069e-05
1.01866e-05
9.42747e-06
8.72529e-06
8.07371e-06
7.47751e-06
6.89705e-06
6.45781e-06
5.62544e-06
5.99363e-06
3.51331e-11
3.51331e-11
-0.00447525
0.00447525
0.00693974
0.00706179
0.0065081
0.0057693
0.00502378
0.00434758
0.00376774
0.00328503
0.00288795
0.00256119
0.00228997
0.00206189
0.00186719
0.00169854
0.00155052
0.00141918
0.00130158
0.00119555
0.00109944
0.00101197
0.000932106
0.000859025
0.000792031
0.000730534
0.000674022
0.000622049
0.000574218
0.000530173
0.000489596
0.000452199
0.000417721
0.000385924
0.000356592
0.000329527
0.000304549
0.000281491
0.000260203
0.000240545
0.00022239
0.000205619
0.000190127
0.000175812
0.000162585
0.000150361
0.000139063
0.00012862
0.000118967
0.000110042
0.000101791
9.41622e-05
8.71079e-05
8.05846e-05
7.45519e-05
6.89727e-05
6.38127e-05
5.90401e-05
5.46256e-05
5.05423e-05
4.6765e-05
4.32708e-05
4.00384e-05
3.7048e-05
3.42815e-05
3.1722e-05
2.93539e-05
2.71629e-05
2.51358e-05
2.32601e-05
2.15247e-05
1.99189e-05
1.8433e-05
1.70581e-05
1.57859e-05
1.46086e-05
1.35193e-05
1.25112e-05
1.15784e-05
1.07152e-05
9.91635e-06
9.17713e-06
8.49305e-06
7.85999e-06
7.27416e-06
6.73201e-06
6.23029e-06
5.76598e-06
5.3363e-06
4.93865e-06
4.57065e-06
4.23006e-06
3.91497e-06
3.62284e-06
3.35468e-06
3.09642e-06
2.89306e-06
2.53748e-06
2.66883e-06
4.75157e-11
4.75157e-11
0.00447517
-0.00447517
-0.00693971
-0.00706181
-0.00650813
-0.00576929
-0.00502378
-0.00434761
-0.00376776
-0.00328503
-0.00288795
-0.00256119
-0.00228997
-0.00206189
-0.00186719
-0.00169854
-0.00155052
-0.00141918
-0.00130158
-0.00119555
-0.00109944
-0.00101197
-0.000932106
-0.000859025
-0.000792032
-0.000730535
-0.000674023
-0.00062205
-0.000574218
-0.000530173
-0.000489596
-0.000452198
-0.00041772
-0.000385924
-0.000356592
-0.000329527
-0.000304549
-0.000281491
-0.000260203
-0.000240545
-0.000222389
-0.000205619
-0.000190126
-0.000175811
-0.000162584
-0.00015036
-0.000139062
-0.000128619
-0.000118966
-0.000110041
-0.00010179
-9.4161e-05
-8.71067e-05
-8.05834e-05
-7.45507e-05
-6.89715e-05
-6.38115e-05
-5.90389e-05
-5.46244e-05
-5.05411e-05
-4.67639e-05
-4.32697e-05
-4.00373e-05
-3.7047e-05
-3.42805e-05
-3.1721e-05
-2.93529e-05
-2.7162e-05
-2.51349e-05
-2.32593e-05
-2.15238e-05
-1.9918e-05
-1.84322e-05
-1.70573e-05
-1.57851e-05
-1.46079e-05
-1.35186e-05
-1.25105e-05
-1.15777e-05
-1.07145e-05
-9.91571e-06
-9.17649e-06
-8.49241e-06
-7.85936e-06
-7.27351e-06
-6.73136e-06
-6.22963e-06
-5.7653e-06
-5.3356e-06
-4.93793e-06
-4.5699e-06
-4.22929e-06
-3.91418e-06
-3.62202e-06
-3.35385e-06
-3.0956e-06
-2.89225e-06
-2.53678e-06
-2.66817e-06
4.93138e-11
4.93138e-11
0.0142106
-0.0142106
-0.0209505
-0.0208659
-0.0189119
-0.0164968
-0.0141327
-0.0120299
-0.0102539
-0.008795
-0.00761041
-0.00664858
-0.00586162
-0.0052098
-0.00466221
-0.00419555
-0.0037926
-0.00344064
-0.00313026
-0.00285439
-0.00260764
-0.00238584
-0.00218564
-0.00200437
-0.00183981
-0.00169009
-0.00155363
-0.00142905
-0.00131519
-0.00121099
-0.00111555
-0.00102804
-0.000947735
-0.000873997
-0.00080624
-0.000743942
-0.000686631
-0.000633881
-0.000585308
-0.000540561
-0.000499323
-0.000461305
-0.000426245
-0.000393903
-0.000364061
-0.000336517
-0.00031109
-0.000287611
-0.000265927
-0.000245898
-0.000227394
-0.000210296
-0.000194496
-0.000179893
-0.000166395
-0.000153918
-0.000142382
-0.000131715
-0.000121853
-0.000112732
-0.000104298
-9.6497e-05
-8.9282e-05
-8.26084e-05
-7.64352e-05
-7.07249e-05
-6.54423e-05
-6.05553e-05
-5.60341e-05
-5.18512e-05
-4.79812e-05
-4.44006e-05
-4.10876e-05
-3.80222e-05
-3.51859e-05
-3.25614e-05
-3.01329e-05
-2.78857e-05
-2.58063e-05
-2.38821e-05
-2.21015e-05
-2.04537e-05
-1.89289e-05
-1.75178e-05
-1.6212e-05
-1.50036e-05
-1.38853e-05
-1.28504e-05
-1.18926e-05
-1.10063e-05
-1.01861e-05
-9.42687e-06
-8.72467e-06
-8.07307e-06
-7.47687e-06
-6.89641e-06
-6.45718e-06
-5.6249e-06
-5.99315e-06
3.95436e-11
3.95436e-11
0.0259716
-0.0259716
-0.03387
-0.0318859
-0.0277092
-0.0232683
-0.0192106
-0.0157606
-0.0129474
-0.0107074
-0.00894298
-0.00755454
-0.0064554
-0.005576
-0.00486303
-0.00427675
-0.00378788
-0.00337489
-0.00302191
-0.00271714
-0.00245169
-0.00221874
-0.00201302
-0.00183037
-0.00166744
-0.00152154
-0.00139042
-0.00127225
-0.00116545
-0.00106871
-0.000980889
-0.000901025
-0.000828272
-0.000761897
-0.000701256
-0.000645787
-0.000594993
-0.000548431
-0.000505711
-0.000466483
-0.000430434
-0.000397286
-0.000366785
-0.000338705
-0.00031284
-0.000289006
-0.000267033
-0.000246769
-0.000228075
-0.000210824
-0.0001949
-0.000180197
-0.00016662
-0.000154078
-0.000142491
-0.000131785
-0.000121891
-0.000112746
-0.000104293
-9.64778e-05
-8.92522e-05
-8.25709e-05
-7.63924e-05
-7.06785e-05
-6.53939e-05
-6.0506e-05
-5.59848e-05
-5.18025e-05
-4.79336e-05
-4.43545e-05
-4.10433e-05
-3.79798e-05
-3.51455e-05
-3.2523e-05
-3.00966e-05
-2.78515e-05
-2.57741e-05
-2.38519e-05
-2.20732e-05
-2.04273e-05
-1.89042e-05
-1.74948e-05
-1.61906e-05
-1.49836e-05
-1.38667e-05
-1.28331e-05
-1.18766e-05
-1.09914e-05
-1.01722e-05
-9.41413e-06
-8.71258e-06
-8.06316e-06
-7.46283e-06
-6.90454e-06
-6.39769e-06
-5.89145e-06
-5.54191e-06
-4.7571e-06
-5.16855e-06
2.24506e-11
2.24506e-11
0.0359859
-0.0359859
-0.0367618
-0.0309383
-0.0247936
-0.0193688
-0.0148922
-0.011356
-0.00865022
-0.00662565
-0.00513159
-0.00403562
-0.0032309
-0.00263584
-0.00219043
-0.00185164
-0.00158905
-0.00138139
-0.0012138
-0.00107593
-0.000960494
-0.000862342
-0.000777778
-0.000704112
-0.000639352
-0.000581993
-0.000530877
-0.000485095
-0.000443918
-0.000406753
-0.000373112
-0.000342582
-0.000314817
-0.000289519
-0.00026643
-0.000245328
-0.000226016
-0.000208321
-0.000192093
-0.000177196
-0.000163509
-0.000150925
-0.000139347
-0.000128689
-0.000118871
-0.000109825
-0.000101484
-9.37919e-05
-8.6695e-05
-8.01452e-05
-7.40988e-05
-6.85155e-05
-6.33588e-05
-5.8595e-05
-5.41934e-05
-5.01258e-05
-4.63664e-05
-4.28911e-05
-3.96783e-05
-3.67078e-05
-3.3961e-05
-3.14208e-05
-2.90716e-05
-2.68987e-05
-2.48889e-05
-2.30298e-05
-2.13101e-05
-1.97191e-05
-1.82472e-05
-1.68854e-05
-1.56255e-05
-1.44598e-05
-1.33812e-05
-1.23831e-05
-1.14597e-05
-1.06051e-05
-9.81439e-06
-9.08268e-06
-8.40556e-06
-7.77897e-06
-7.19912e-06
-6.66253e-06
-6.16595e-06
-5.70641e-06
-5.28113e-06
-4.88756e-06
-4.52334e-06
-4.18626e-06
-3.87431e-06
-3.58561e-06
-3.31847e-06
-3.07103e-06
-2.84281e-06
-2.62889e-06
-2.43981e-06
-2.23527e-06
-2.13212e-06
-1.75561e-06
-1.9995e-06
5.86845e-12
5.86845e-12
0
0
0
0
0
0
0
0
0
0
0
0
0
0
0
0
0
0
0
0
0
0
0
0
0
0
0
0
0
0
0
0
0
0
0
0
0
0
0
0
0
0
0
0
0
0
0
0
0
0
0
0
0
0
0
0
0
0
0
0
0
0
0
0
0
0
0
0
0
0
0
0
0
0
0
0
0
0
0
0
0
0
0
0
0
0
0
0
0
0
0
0
0
0
0
0
0
0
0
0
0
0
0
0
0
0
0
0
0
0
0
0
0
0
0
0
0
0
0
0
0
0
0
0
0
0
0
0
0
0
0
0
0
0
0
0
0
0
0
0
0
0
0
0
0
0
0
0
0
0
0
0
0
0
0
0
0
0
0
0
0
0
0
0
0
0
0
0
0
0
0
0
0
0
0
0
0
0
0
0
0
0
0
0
0
0
0
0
0
0
0
0
0
0
0
0
0
0
0
0
0
0
