# vtk DataFile Version 2.0
FlowField
ASCII
DATASET STRUCTURED_GRID
DIMENSIONS 102 1 12 
POINTS 1224 double
0 0 0
0.4 0 0
0.8 0 0
1.2 0 0
1.6 0 0
2 0 0
2.4 0 0
2.8 0 0
3.2 0 0
3.6 0 0
4 0 0
4.4 0 0
4.8 0 0
5.2 0 0
5.6 0 0
6 0 0
6.4 0 0
6.8 0 0
7.2 0 0
7.6 0 0
8 0 0
8.4 0 0
8.8 0 0
9.2 0 0
9.6 0 0
10 0 0
10.4 0 0
10.8 0 0
11.2 0 0
11.6 0 0
12 0 0
12.4 0 0
12.8 0 0
13.2 0 0
13.6 0 0
14 0 0
14.4 0 0
14.8 0 0
15.2 0 0
15.6 0 0
16 0 0
16.4 0 0
16.8 0 0
17.2 0 0
17.6 0 0
18 0 0
18.4 0 0
18.8 0 0
19.2 0 0
19.6 0 0
20 0 0
20.4 0 0
20.8 0 0
21.2 0 0
21.6 0 0
22 0 0
22.4 0 0
22.8 0 0
23.2 0 0
23.6 0 0
24 0 0
24.4 0 0
24.8 0 0
25.2 0 0
25.6 0 0
26 0 0
26.4 0 0
26.8 0 0
27.2 0 0
27.6 0 0
28 0 0
28.4 0 0
28.8 0 0
29.2 0 0
29.6 0 0
30 0 0
30.4 0 0
30.8 0 0
31.2 0 0
31.6 0 0
32 0 0
32.4 0 0
32.8 0 0
33.2 0 0
33.6 0 0
34 0 0
34.4 0 0
34.8 0 0
35.2 0 0
35.6 0 0
36 0 0
36.4 0 0
36.8 0 0
37.2 0 0
37.6 0 0
38 0 0
38.4 0 0
38.8 0 0
39.2 0 0
39.6 0 0
40 0 0
40.4 0 0
0 0.1 0
0.4 0.1 0
0.8 0.1 0
1.2 0.1 0
1.6 0.1 0
2 0.1 0
2.4 0.1 0
2.8 0.1 0
3.2 0.1 0
3.6 0.1 0
4 0.1 0
4.4 0.1 0
4.8 0.1 0
5.2 0.1 0
5.6 0.1 0
6 0.1 0
6.4 0.1 0
6.8 0.1 0
7.2 0.1 0
7.6 0.1 0
8 0.1 0
8.4 0.1 0
8.8 0.1 0
9.2 0.1 0
9.6 0.1 0
10 0.1 0
10.4 0.1 0
10.8 0.1 0
11.2 0.1 0
11.6 0.1 0
12 0.1 0
12.4 0.1 0
12.8 0.1 0
13.2 0.1 0
13.6 0.1 0
14 0.1 0
14.4 0.1 0
14.8 0.1 0
15.2 0.1 0
15.6 0.1 0
16 0.1 0
16.4 0.1 0
16.8 0.1 0
17.2 0.1 0
17.6 0.1 0
18 0.1 0
18.4 0.1 0
18.8 0.1 0
19.2 0.1 0
19.6 0.1 0
20 0.1 0
20.4 0.1 0
20.8 0.1 0
21.2 0.1 0
21.6 0.1 0
22 0.1 0
22.4 0.1 0
22.8 0.1 0
23.2 0.1 0
23.6 0.1 0
24 0.1 0
24.4 0.1 0
24.8 0.1 0
25.2 0.1 0
25.6 0.1 0
26 0.1 0
26.4 0.1 0
26.8 0.1 0
27.2 0.1 0
27.6 0.1 0
28 0.1 0
28.4 0.1 0
28.8 0.1 0
29.2 0.1 0
29.6 0.1 0
30 0.1 0
30.4 0.1 0
30.8 0.1 0
31.2 0.1 0
31.6 0.1 0
32 0.1 0
32.4 0.1 0
32.8 0.1 0
33.2 0.1 0
33.6 0.1 0
34 0.1 0
34.4 0.1 0
34.8 0.1 0
35.2 0.1 0
35.6 0.1 0
36 0.1 0
36.4 0.1 0
36.8 0.1 0
37.2 0.1 0
37.6 0.1 0
38 0.1 0
38.4 0.1 0
38.8 0.1 0
39.2 0.1 0
39.6 0.1 0
40 0.1 0
40.4 0.1 0
0 0.2 0
0.4 0.2 0
0.8 0.2 0
1.2 0.2 0
1.6 0.2 0
2 0.2 0
2.4 0.2 0
2.8 0.2 0
3.2 0.2 0
3.6 0.2 0
4 0.2 0
4.4 0.2 0
4.8 0.2 0
5.2 0.2 0
5.6 0.2 0
6 0.2 0
6.4 0.2 0
6.8 0.2 0
7.2 0.2 0
7.6 0.2 0
8 0.2 0
8.4 0.2 0
8.8 0.2 0
9.2 0.2 0
9.6 0.2 0
10 0.2 0
10.4 0.2 0
10.8 0.2 0
11.2 0.2 0
11.6 0.2 0
12 0.2 0
12.4 0.2 0
12.8 0.2 0
13.2 0.2 0
13.6 0.2 0
14 0.2 0
14.4 0.2 0
14.8 0.2 0
15.2 0.2 0
15.6 0.2 0
16 0.2 0
16.4 0.2 0
16.8 0.2 0
17.2 0.2 0
17.6 0.2 0
18 0.2 0
18.4 0.2 0
18.8 0.2 0
19.2 0.2 0
19.6 0.2 0
20 0.2 0
20.4 0.2 0
20.8 0.2 0
21.2 0.2 0
21.6 0.2 0
22 0.2 0
22.4 0.2 0
22.8 0.2 0
23.2 0.2 0
23.6 0.2 0
24 0.2 0
24.4 0.2 0
24.8 0.2 0
25.2 0.2 0
25.6 0.2 0
26 0.2 0
26.4 0.2 0
26.8 0.2 0
27.2 0.2 0
27.6 0.2 0
28 0.2 0
28.4 0.2 0
28.8 0.2 0
29.2 0.2 0
29.6 0.2 0
30 0.2 0
30.4 0.2 0
30.8 0.2 0
31.2 0.2 0
31.6 0.2 0
32 0.2 0
32.4 0.2 0
32.8 0.2 0
33.2 0.2 0
33.6 0.2 0
34 0.2 0
34.4 0.2 0
34.8 0.2 0
35.2 0.2 0
35.6 0.2 0
36 0.2 0
36.4 0.2 0
36.8 0.2 0
37.2 0.2 0
37.6 0.2 0
38 0.2 0
38.4 0.2 0
38.8 0.2 0
39.2 0.2 0
39.6 0.2 0
40 0.2 0
40.4 0.2 0
0 0.3 0
0.4 0.3 0
0.8 0.3 0
1.2 0.3 0
1.6 0.3 0
2 0.3 0
2.4 0.3 0
2.8 0.3 0
3.2 0.3 0
3.6 0.3 0
4 0.3 0
4.4 0.3 0
4.8 0.3 0
5.2 0.3 0
5.6 0.3 0
6 0.3 0
6.4 0.3 0
6.8 0.3 0
7.2 0.3 0
7.6 0.3 0
8 0.3 0
8.4 0.3 0
8.8 0.3 0
9.2 0.3 0
9.6 0.3 0
10 0.3 0
10.4 0.3 0
10.8 0.3 0
11.2 0.3 0
11.6 0.3 0
12 0.3 0
12.4 0.3 0
12.8 0.3 0
13.2 0.3 0
13.6 0.3 0
14 0.3 0
14.4 0.3 0
14.8 0.3 0
15.2 0.3 0
15.6 0.3 0
16 0.3 0
16.4 0.3 0
16.8 0.3 0
17.2 0.3 0
17.6 0.3 0
18 0.3 0
18.4 0.3 0
18.8 0.3 0
19.2 0.3 0
19.6 0.3 0
20 0.3 0
20.4 0.3 0
20.8 0.3 0
21.2 0.3 0
21.6 0.3 0
22 0.3 0
22.4 0.3 0
22.8 0.3 0
23.2 0.3 0
23.6 0.3 0
24 0.3 0
24.4 0.3 0
24.8 0.3 0
25.2 0.3 0
25.6 0.3 0
26 0.3 0
26.4 0.3 0
26.8 0.3 0
27.2 0.3 0
27.6 0.3 0
28 0.3 0
28.4 0.3 0
28.8 0.3 0
29.2 0.3 0
29.6 0.3 0
30 0.3 0
30.4 0.3 0
30.8 0.3 0
31.2 0.3 0
31.6 0.3 0
32 0.3 0
32.4 0.3 0
32.8 0.3 0
33.2 0.3 0
33.6 0.3 0
34 0.3 0
34.4 0.3 0
34.8 0.3 0
35.2 0.3 0
35.6 0.3 0
36 0.3 0
36.4 0.3 0
36.8 0.3 0
37.2 0.3 0
37.6 0.3 0
38 0.3 0
38.4 0.3 0
38.8 0.3 0
39.2 0.3 0
39.6 0.3 0
40 0.3 0
40.4 0.3 0
0 0.4 0
0.4 0.4 0
0.8 0.4 0
1.2 0.4 0
1.6 0.4 0
2 0.4 0
2.4 0.4 0
2.8 0.4 0
3.2 0.4 0
3.6 0.4 0
4 0.4 0
4.4 0.4 0
4.8 0.4 0
5.2 0.4 0
5.6 0.4 0
6 0.4 0
6.4 0.4 0
6.8 0.4 0
7.2 0.4 0
7.6 0.4 0
8 0.4 0
8.4 0.4 0
8.8 0.4 0
9.2 0.4 0
9.6 0.4 0
10 0.4 0
10.4 0.4 0
10.8 0.4 0
11.2 0.4 0
11.6 0.4 0
12 0.4 0
12.4 0.4 0
12.8 0.4 0
13.2 0.4 0
13.6 0.4 0
14 0.4 0
14.4 0.4 0
14.8 0.4 0
15.2 0.4 0
15.6 0.4 0
16 0.4 0
16.4 0.4 0
16.8 0.4 0
17.2 0.4 0
17.6 0.4 0
18 0.4 0
18.4 0.4 0
18.8 0.4 0
19.2 0.4 0
19.6 0.4 0
20 0.4 0
20.4 0.4 0
20.8 0.4 0
21.2 0.4 0
21.6 0.4 0
22 0.4 0
22.4 0.4 0
22.8 0.4 0
23.2 0.4 0
23.6 0.4 0
24 0.4 0
24.4 0.4 0
24.8 0.4 0
25.2 0.4 0
25.6 0.4 0
26 0.4 0
26.4 0.4 0
26.8 0.4 0
27.2 0.4 0
27.6 0.4 0
28 0.4 0
28.4 0.4 0
28.8 0.4 0
29.2 0.4 0
29.6 0.4 0
30 0.4 0
30.4 0.4 0
30.8 0.4 0
31.2 0.4 0
31.6 0.4 0
32 0.4 0
32.4 0.4 0
32.8 0.4 0
33.2 0.4 0
33.6 0.4 0
34 0.4 0
34.4 0.4 0
34.8 0.4 0
35.2 0.4 0
35.6 0.4 0
36 0.4 0
36.4 0.4 0
36.8 0.4 0
37.2 0.4 0
37.6 0.4 0
38 0.4 0
38.4 0.4 0
38.8 0.4 0
39.2 0.4 0
39.6 0.4 0
40 0.4 0
40.4 0.4 0
0 0.5 0
0.4 0.5 0
0.8 0.5 0
1.2 0.5 0
1.6 0.5 0
2 0.5 0
2.4 0.5 0
2.8 0.5 0
3.2 0.5 0
3.6 0.5 0
4 0.5 0
4.4 0.5 0
4.8 0.5 0
5.2 0.5 0
5.6 0.5 0
6 0.5 0
6.4 0.5 0
6.8 0.5 0
7.2 0.5 0
7.6 0.5 0
8 0.5 0
8.4 0.5 0
8.8 0.5 0
9.2 0.5 0
9.6 0.5 0
10 0.5 0
10.4 0.5 0
10.8 0.5 0
11.2 0.5 0
11.6 0.5 0
12 0.5 0
12.4 0.5 0
12.8 0.5 0
13.2 0.5 0
13.6 0.5 0
14 0.5 0
14.4 0.5 0
14.8 0.5 0
15.2 0.5 0
15.6 0.5 0
16 0.5 0
16.4 0.5 0
16.8 0.5 0
17.2 0.5 0
17.6 0.5 0
18 0.5 0
18.4 0.5 0
18.8 0.5 0
19.2 0.5 0
19.6 0.5 0
20 0.5 0
20.4 0.5 0
20.8 0.5 0
21.2 0.5 0
21.6 0.5 0
22 0.5 0
22.4 0.5 0
22.8 0.5 0
23.2 0.5 0
23.6 0.5 0
24 0.5 0
24.4 0.5 0
24.8 0.5 0
25.2 0.5 0
25.6 0.5 0
26 0.5 0
26.4 0.5 0
26.8 0.5 0
27.2 0.5 0
27.6 0.5 0
28 0.5 0
28.4 0.5 0
28.8 0.5 0
29.2 0.5 0
29.6 0.5 0
30 0.5 0
30.4 0.5 0
30.8 0.5 0
31.2 0.5 0
31.6 0.5 0
32 0.5 0
32.4 0.5 0
32.8 0.5 0
33.2 0.5 0
33.6 0.5 0
34 0.5 0
34.4 0.5 0
34.8 0.5 0
35.2 0.5 0
35.6 0.5 0
36 0.5 0
36.4 0.5 0
36.8 0.5 0
37.2 0.5 0
37.6 0.5 0
38 0.5 0
38.4 0.5 0
38.8 0.5 0
39.2 0.5 0
39.6 0.5 0
40 0.5 0
40.4 0.5 0
0 0.6 0
0.4 0.6 0
0.8 0.6 0
1.2 0.6 0
1.6 0.6 0
2 0.6 0
2.4 0.6 0
2.8 0.6 0
3.2 0.6 0
3.6 0.6 0
4 0.6 0
4.4 0.6 0
4.8 0.6 0
5.2 0.6 0
5.6 0.6 0
6 0.6 0
6.4 0.6 0
6.8 0.6 0
7.2 0.6 0
7.6 0.6 0
8 0.6 0
8.4 0.6 0
8.8 0.6 0
9.2 0.6 0
9.6 0.6 0
10 0.6 0
10.4 0.6 0
10.8 0.6 0
11.2 0.6 0
11.6 0.6 0
12 0.6 0
12.4 0.6 0
12.8 0.6 0
13.2 0.6 0
13.6 0.6 0
14 0.6 0
14.4 0.6 0
14.8 0.6 0
15.2 0.6 0
15.6 0.6 0
16 0.6 0
16.4 0.6 0
16.8 0.6 0
17.2 0.6 0
17.6 0.6 0
18 0.6 0
18.4 0.6 0
18.8 0.6 0
19.2 0.6 0
19.6 0.6 0
20 0.6 0
20.4 0.6 0
20.8 0.6 0
21.2 0.6 0
21.6 0.6 0
22 0.6 0
22.4 0.6 0
22.8 0.6 0
23.2 0.6 0
23.6 0.6 0
24 0.6 0
24.4 0.6 0
24.8 0.6 0
25.2 0.6 0
25.6 0.6 0
26 0.6 0
26.4 0.6 0
26.8 0.6 0
27.2 0.6 0
27.6 0.6 0
28 0.6 0
28.4 0.6 0
28.8 0.6 0
29.2 0.6 0
29.6 0.6 0
30 0.6 0
30.4 0.6 0
30.8 0.6 0
31.2 0.6 0
31.6 0.6 0
32 0.6 0
32.4 0.6 0
32.8 0.6 0
33.2 0.6 0
33.6 0.6 0
34 0.6 0
34.4 0.6 0
34.8 0.6 0
35.2 0.6 0
35.6 0.6 0
36 0.6 0
36.4 0.6 0
36.8 0.6 0
37.2 0.6 0
37.6 0.6 0
38 0.6 0
38.4 0.6 0
38.8 0.6 0
39.2 0.6 0
39.6 0.6 0
40 0.6 0
40.4 0.6 0
0 0.7 0
0.4 0.7 0
0.8 0.7 0
1.2 0.7 0
1.6 0.7 0
2 0.7 0
2.4 0.7 0
2.8 0.7 0
3.2 0.7 0
3.6 0.7 0
4 0.7 0
4.4 0.7 0
4.8 0.7 0
5.2 0.7 0
5.6 0.7 0
6 0.7 0
6.4 0.7 0
6.8 0.7 0
7.2 0.7 0
7.6 0.7 0
8 0.7 0
8.4 0.7 0
8.8 0.7 0
9.2 0.7 0
9.6 0.7 0
10 0.7 0
10.4 0.7 0
10.8 0.7 0
11.2 0.7 0
11.6 0.7 0
12 0.7 0
12.4 0.7 0
12.8 0.7 0
13.2 0.7 0
13.6 0.7 0
14 0.7 0
14.4 0.7 0
14.8 0.7 0
15.2 0.7 0
15.6 0.7 0
16 0.7 0
16.4 0.7 0
16.8 0.7 0
17.2 0.7 0
17.6 0.7 0
18 0.7 0
18.4 0.7 0
18.8 0.7 0
19.2 0.7 0
19.6 0.7 0
20 0.7 0
20.4 0.7 0
20.8 0.7 0
21.2 0.7 0
21.6 0.7 0
22 0.7 0
22.4 0.7 0
22.8 0.7 0
23.2 0.7 0
23.6 0.7 0
24 0.7 0
24.4 0.7 0
24.8 0.7 0
25.2 0.7 0
25.6 0.7 0
26 0.7 0
26.4 0.7 0
26.8 0.7 0
27.2 0.7 0
27.6 0.7 0
28 0.7 0
28.4 0.7 0
28.8 0.7 0
29.2 0.7 0
29.6 0.7 0
30 0.7 0
30.4 0.7 0
30.8 0.7 0
31.2 0.7 0
31.6 0.7 0
32 0.7 0
32.4 0.7 0
32.8 0.7 0
33.2 0.7 0
33.6 0.7 0
34 0.7 0
34.4 0.7 0
34.8 0.7 0
35.2 0.7 0
35.6 0.7 0
36 0.7 0
36.4 0.7 0
36.8 0.7 0
37.2 0.7 0
37.6 0.7 0
38 0.7 0
38.4 0.7 0
38.8 0.7 0
39.2 0.7 0
39.6 0.7 0
40 0.7 0
40.4 0.7 0
0 0.8 0
0.4 0.8 0
0.8 0.8 0
1.2 0.8 0
1.6 0.8 0
2 0.8 0
2.4 0.8 0
2.8 0.8 0
3.2 0.8 0
3.6 0.8 0
4 0.8 0
4.4 0.8 0
4.8 0.8 0
5.2 0.8 0
5.6 0.8 0
6 0.8 0
6.4 0.8 0
6.8 0.8 0
7.2 0.8 0
7.6 0.8 0
8 0.8 0
8.4 0.8 0
8.8 0.8 0
9.2 0.8 0
9.6 0.8 0
10 0.8 0
10.4 0.8 0
10.8 0.8 0
11.2 0.8 0
11.6 0.8 0
12 0.8 0
12.4 0.8 0
12.8 0.8 0
13.2 0.8 0
13.6 0.8 0
14 0.8 0
14.4 0.8 0
14.8 0.8 0
15.2 0.8 0
15.6 0.8 0
16 0.8 0
16.4 0.8 0
16.8 0.8 0
17.2 0.8 0
17.6 0.8 0
18 0.8 0
18.4 0.8 0
18.8 0.8 0
19.2 0.8 0
19.6 0.8 0
20 0.8 0
20.4 0.8 0
20.8 0.8 0
21.2 0.8 0
21.6 0.8 0
22 0.8 0
22.4 0.8 0
22.8 0.8 0
23.2 0.8 0
23.6 0.8 0
24 0.8 0
24.4 0.8 0
24.8 0.8 0
25.2 0.8 0
25.6 0.8 0
26 0.8 0
26.4 0.8 0
26.8 0.8 0
27.2 0.8 0
27.6 0.8 0
28 0.8 0
28.4 0.8 0
28.8 0.8 0
29.2 0.8 0
29.6 0.8 0
30 0.8 0
30.4 0.8 0
30.8 0.8 0
31.2 0.8 0
31.6 0.8 0
32 0.8 0
32.4 0.8 0
32.8 0.8 0
33.2 0.8 0
33.6 0.8 0
34 0.8 0
34.4 0.8 0
34.8 0.8 0
35.2 0.8 0
35.6 0.8 0
36 0.8 0
36.4 0.8 0
36.8 0.8 0
37.2 0.8 0
37.6 0.8 0
38 0.8 0
38.4 0.8 0
38.8 0.8 0
39.2 0.8 0
39.6 0.8 0
40 0.8 0
40.4 0.8 0
0 0.9 0
0.4 0.9 0
0.8 0.9 0
1.2 0.9 0
1.6 0.9 0
2 0.9 0
2.4 0.9 0
2.8 0.9 0
3.2 0.9 0
3.6 0.9 0
4 0.9 0
4.4 0.9 0
4.8 0.9 0
5.2 0.9 0
5.6 0.9 0
6 0.9 0
6.4 0.9 0
6.8 0.9 0
7.2 0.9 0
7.6 0.9 0
8 0.9 0
8.4 0.9 0
8.8 0.9 0
9.2 0.9 0
9.6 0.9 0
10 0.9 0
10.4 0.9 0
10.8 0.9 0
11.2 0.9 0
11.6 0.9 0
12 0.9 0
12.4 0.9 0
12.8 0.9 0
13.2 0.9 0
13.6 0.9 0
14 0.9 0
14.4 0.9 0
14.8 0.9 0
15.2 0.9 0
15.6 0.9 0
16 0.9 0
16.4 0.9 0
16.8 0.9 0
17.2 0.9 0
17.6 0.9 0
18 0.9 0
18.4 0.9 0
18.8 0.9 0
19.2 0.9 0
19.6 0.9 0
20 0.9 0
20.4 0.9 0
20.8 0.9 0
21.2 0.9 0
21.6 0.9 0
22 0.9 0
22.4 0.9 0
22.8 0.9 0
23.2 0.9 0
23.6 0.9 0
24 0.9 0
24.4 0.9 0
24.8 0.9 0
25.2 0.9 0
25.6 0.9 0
26 0.9 0
26.4 0.9 0
26.8 0.9 0
27.2 0.9 0
27.6 0.9 0
28 0.9 0
28.4 0.9 0
28.8 0.9 0
29.2 0.9 0
29.6 0.9 0
30 0.9 0
30.4 0.9 0
30.8 0.9 0
31.2 0.9 0
31.6 0.9 0
32 0.9 0
32.4 0.9 0
32.8 0.9 0
33.2 0.9 0
33.6 0.9 0
34 0.9 0
34.4 0.9 0
34.8 0.9 0
35.2 0.9 0
35.6 0.9 0
36 0.9 0
36.4 0.9 0
36.8 0.9 0
37.2 0.9 0
37.6 0.9 0
38 0.9 0
38.4 0.9 0
38.8 0.9 0
39.2 0.9 0
39.6 0.9 0
40 0.9 0
40.4 0.9 0
0 1 0
0.4 1 0
0.8 1 0
1.2 1 0
1.6 1 0
2 1 0
2.4 1 0
2.8 1 0
3.2 1 0
3.6 1 0
4 1 0
4.4 1 0
4.8 1 0
5.2 1 0
5.6 1 0
6 1 0
6.4 1 0
6.8 1 0
7.2 1 0
7.6 1 0
8 1 0
8.4 1 0
8.8 1 0
9.2 1 0
9.6 1 0
10 1 0
10.4 1 0
10.8 1 0
11.2 1 0
11.6 1 0
12 1 0
12.4 1 0
12.8 1 0
13.2 1 0
13.6 1 0
14 1 0
14.4 1 0
14.8 1 0
15.2 1 0
15.6 1 0
16 1 0
16.4 1 0
16.8 1 0
17.2 1 0
17.6 1 0
18 1 0
18.4 1 0
18.8 1 0
19.2 1 0
19.6 1 0
20 1 0
20.4 1 0
20.8 1 0
21.2 1 0
21.6 1 0
22 1 0
22.4 1 0
22.8 1 0
23.2 1 0
23.6 1 0
24 1 0
24.4 1 0
24.8 1 0
25.2 1 0
25.6 1 0
26 1 0
26.4 1 0
26.8 1 0
27.2 1 0
27.6 1 0
28 1 0
28.4 1 0
28.8 1 0
29.2 1 0
29.6 1 0
30 1 0
30.4 1 0
30.8 1 0
31.2 1 0
31.6 1 0
32 1 0
32.4 1 0
32.8 1 0
33.2 1 0
33.6 1 0
34 1 0
34.4 1 0
34.8 1 0
35.2 1 0
35.6 1 0
36 1 0
36.4 1 0
36.8 1 0
37.2 1 0
37.6 1 0
38 1 0
38.4 1 0
38.8 1 0
39.2 1 0
39.6 1 0
40 1 0
40.4 1 0
0 1.1 0
0.4 1.1 0
0.8 1.1 0
1.2 1.1 0
1.6 1.1 0
2 1.1 0
2.4 1.1 0
2.8 1.1 0
3.2 1.1 0
3.6 1.1 0
4 1.1 0
4.4 1.1 0
4.8 1.1 0
5.2 1.1 0
5.6 1.1 0
6 1.1 0
6.4 1.1 0
6.8 1.1 0
7.2 1.1 0
7.6 1.1 0
8 1.1 0
8.4 1.1 0
8.8 1.1 0
9.2 1.1 0
9.6 1.1 0
10 1.1 0
10.4 1.1 0
10.8 1.1 0
11.2 1.1 0
11.6 1.1 0
12 1.1 0
12.4 1.1 0
12.8 1.1 0
13.2 1.1 0
13.6 1.1 0
14 1.1 0
14.4 1.1 0
14.8 1.1 0
15.2 1.1 0
15.6 1.1 0
16 1.1 0
16.4 1.1 0
16.8 1.1 0
17.2 1.1 0
17.6 1.1 0
18 1.1 0
18.4 1.1 0
18.8 1.1 0
19.2 1.1 0
19.6 1.1 0
20 1.1 0
20.4 1.1 0
20.8 1.1 0
21.2 1.1 0
21.6 1.1 0
22 1.1 0
22.4 1.1 0
22.8 1.1 0
23.2 1.1 0
23.6 1.1 0
24 1.1 0
24.4 1.1 0
24.8 1.1 0
25.2 1.1 0
25.6 1.1 0
26 1.1 0
26.4 1.1 0
26.8 1.1 0
27.2 1.1 0
27.6 1.1 0
28 1.1 0
28.4 1.1 0
28.8 1.1 0
29.2 1.1 0
29.6 1.1 0
30 1.1 0
30.4 1.1 0
30.8 1.1 0
31.2 1.1 0
31.6 1.1 0
32 1.1 0
32.4 1.1 0
32.8 1.1 0
33.2 1.1 0
33.6 1.1 0
34 1.1 0
34.4 1.1 0
34.8 1.1 0
35.2 1.1 0
35.6 1.1 0
36 1.1 0
36.4 1.1 0
36.8 1.1 0
37.2 1.1 0
37.6 1.1 0
38 1.1 0
38.4 1.1 0
38.8 1.1 0
39.2 1.1 0
39.6 1.1 0
40 1.1 0
40.4 1.1 0

POINT_DATA 1224

SCALARS v double
LOOKUP_TABLE default
0
0
0
0
0
0
0
0
0
0
0
0
0
0
0
0
0
0
0
0
0
0
0
0
0
0
0
0
0
0
0
0
0
0
0
0
0
0
0
0
0
0
0
0
0
0
0
0
0
0
0
0
0
0
0
0
0
0
0
0
0
0
0
0
0
0
0
0
0
0
0
0
0
0
0
0
0
0
0
0
0
0
0
0
0
0
0
0
0
0
0
0
0
0
0
0
0
0
0
0
0
0
-0.00751344
0.00751344
0.0146552
0.0162812
0.0149618
0.0125487
0.0100747
0.00795881
0.00628244
0.00499022
0.00399568
0.00322207
0.00261165
0.00212354
0.00172906
0.00140775
0.00114464
0.00092847
0.000750546
0.000604023
0.000483427
0.000384322
0.000303073
0.000236682
0.000182653
0.000138902
0.000103682
7.55225e-05
5.31895e-05
3.56434e-05
2.20113e-05
1.15481e-05
3.66128e-06
-2.40952e-06
-6.86325e-06
-9.99077e-06
-1.20787e-05
-1.33741e-05
-1.40767e-05
-1.43416e-05
-1.42838e-05
-1.3985e-05
-1.35006e-05
-1.28668e-05
-1.2108e-05
-1.1243e-05
-1.02895e-05
-9.26779e-06
-8.20182e-06
-7.11887e-06
-6.04815e-06
-5.01854e-06
-4.05624e-06
-3.18268e-06
-2.41305e-06
-1.7557e-06
-1.21223e-06
-7.78402e-07
-4.45509e-07
-2.02761e-07
-3.76292e-08
6.96797e-08
1.33786e-07
1.6565e-07
1.74821e-07
1.68978e-07
1.54036e-07
1.34371e-07
1.13063e-07
9.21506e-08
7.28612e-08
5.58287e-08
4.1272e-08
2.91399e-08
1.92198e-08
1.12123e-08
4.75867e-09
-4.33178e-10
-4.46331e-09
-7.60545e-09
-1.00971e-08
-1.20861e-08
-1.36973e-08
-1.50226e-08
-1.61887e-08
-1.71266e-08
-1.85181e-08
-1.87209e-08
-2.63155e-08
-1.99803e-08
-1.13107e-07
-3.71107e-08
-1.28482e-06
-5.06539e-07
-1.73634e-05
-1.02748e-05
-0.000240762
-0.000168616
-0.00349255
-0.00153603
-0.0477885
-0.0477884
-0.00621568
0.00621568
0.0142999
0.0183624
0.0194157
0.0185586
0.0167091
0.0144992
0.0122985
0.0102886
0.00853605
0.00704674
0.00579865
0.00476023
0.00389926
0.0031865
0.00259684
0.00210926
0.00170637
0.00137383
0.0010998
0.000874484
0.00068976
0.000538846
0.000416074
0.000316694
0.000236715
0.000172786
0.000122088
8.22533e-05
5.12994e-05
2.75411e-05
9.63148e-06
-3.85956e-06
-1.37748e-05
-2.07866e-05
-2.55022e-05
-2.84489e-05
-3.00655e-05
-3.07033e-05
-3.06309e-05
-3.00439e-05
-2.90761e-05
-2.78134e-05
-2.63086e-05
-2.45949e-05
-2.26991e-05
-2.065e-05
-1.84846e-05
-1.62495e-05
-1.39997e-05
-1.17943e-05
-9.69167e-06
-7.74375e-06
-5.99202e-06
-4.46449e-06
-3.17461e-06
-2.12198e-06
-1.29461e-06
-6.71582e-07
-2.28189e-07
6.58654e-08
2.47698e-07
3.46593e-07
3.86282e-07
3.85784e-07
3.59937e-07
3.19916e-07
2.73755e-07
2.26913e-07
1.82814e-07
1.43356e-07
1.09351e-07
8.08828e-08
5.7587e-08
3.88444e-08
2.39788e-08
1.23613e-08
3.24523e-09
-3.90988e-09
-9.44278e-09
-1.37019e-08
-1.70008e-08
-1.9577e-08
-2.17086e-08
-2.33042e-08
-2.55449e-08
-2.52713e-08
-3.70245e-08
-1.83587e-08
-1.62669e-07
8.21565e-08
-1.85491e-06
1.20613e-06
-2.51006e-05
1.33534e-05
-0.000347724
0.000140541
-0.00482001
0.000857946
-0.0612653
-0.0612652
-0.00401801
0.00401801
0.00987185
0.0135457
0.0153924
0.0158461
0.015338
0.0142366
0.0128244
0.0112996
0.00979085
0.00837401
0.00708837
0.00594914
0.0049567
0.00410301
0.00337577
0.00276102
0.00224469
0.00181344
0.00145507
0.00115871
0.00091482
0.000715104
0.000552424
0.000420668
0.000314628
0.000229888
0.000162713
0.000109957
6.89791e-05
3.75537e-05
1.38536e-05
-3.8052e-06
-1.66828e-05
-2.57533e-05
-3.18396e-05
-3.56329e-05
-3.77043e-05
-3.85136e-05
-3.8419e-05
-3.76864e-05
-3.65018e-05
-3.49855e-05
-3.32082e-05
-3.12078e-05
-2.90063e-05
-2.6623e-05
-2.40847e-05
-2.14316e-05
-1.87177e-05
-1.60078e-05
-1.33721e-05
-1.08792e-05
-8.58929e-06
-6.54887e-06
-4.78768e-06
-3.31755e-06
-2.13392e-06
-1.21873e-06
-5.43149e-07
-7.47765e-08
2.26373e-07
4.01234e-07
4.84324e-07
5.03808e-07
4.81973e-07
4.3582e-07
3.77758e-07
3.16372e-07
2.57199e-07
2.03456e-07
1.56682e-07
1.17278e-07
8.49154e-08
5.88634e-08
3.82466e-08
2.21656e-08
9.71127e-09
1.85026e-11
-7.48109e-09
-1.32307e-08
-1.76379e-08
-2.10274e-08
-2.37471e-08
-2.57565e-08
-2.83059e-08
-2.7854e-08
-4.02138e-08
-1.39472e-08
-1.69827e-07
2.0137e-07
-1.93559e-06
2.98198e-06
-2.59444e-05
3.67456e-05
-0.000344925
0.000397701
-0.00438924
0.00284346
-0.0516208
-0.0516207
-0.00195406
0.00195406
0.00490746
0.00691944
0.00813033
0.00869009
0.00874624
0.00843554
0.00787797
0.00717311
0.00639891
0.00561272
0.00485392
0.00414728
0.00350643
0.00293696
0.00243904
0.00200933
0.00164251
0.00133227
0.00107202
0.000855305
0.000676066
0.000528796
0.000408581
0.000311103
0.000232616
0.000169899
0.000120205
8.12069e-05
5.09414e-05
2.7763e-05
1.02929e-05
-2.65007e-06
-1.20192e-05
-1.85752e-05
-2.29436e-05
-2.56401e-05
-2.70858e-05
-2.76192e-05
-2.75053e-05
-2.69433e-05
-2.60745e-05
-2.49917e-05
-2.37488e-05
-2.2373e-05
-2.08756e-05
-1.92628e-05
-1.75441e-05
-1.57374e-05
-1.38719e-05
-1.19867e-05
-1.01279e-05
-8.34353e-06
-6.67909e-06
-5.17255e-06
-3.85127e-06
-2.73035e-06
-1.81254e-06
-1.09005e-06
-5.45834e-07
-1.57495e-07
1.00227e-07
2.55861e-07
3.35609e-07
3.61814e-07
3.52593e-07
3.21979e-07
2.80327e-07
2.34877e-07
1.90348e-07
1.49531e-07
1.13814e-07
8.36218e-08
5.87681e-08
3.87236e-08
2.28327e-08
1.04023e-08
7.04938e-10
-6.83753e-09
-1.2693e-08
-1.72423e-08
-2.07989e-08
-2.35983e-08
-2.59025e-08
-2.76457e-08
-2.98344e-08
-2.94654e-08
-3.90539e-08
-1.62349e-08
-1.3197e-07
1.85089e-07
-1.35941e-06
2.72082e-06
-1.73929e-05
3.21792e-05
-0.000218728
0.000329636
-0.00260389
0.00238373
-0.0289935
-0.0289935
-1.975e-09
1.97386e-09
5.50794e-09
8.68004e-09
1.15604e-08
1.41736e-08
1.65137e-08
1.85647e-08
2.03141e-08
2.17608e-08
2.29165e-08
2.38029e-08
2.44489e-08
2.4887e-08
2.5151e-08
2.52744e-08
2.52894e-08
2.52264e-08
2.51134e-08
2.49767e-08
2.4841e-08
2.47306e-08
2.46697e-08
2.46836e-08
2.47986e-08
2.50411e-08
2.54362e-08
2.60032e-08
2.67577e-08
2.76924e-08
2.88194e-08
3.00429e-08
3.15201e-08
3.27048e-08
3.36836e-08
3.43235e-08
3.44596e-08
3.38714e-08
3.23004e-08
2.948e-08
2.51692e-08
1.92015e-08
1.15486e-08
2.38895e-09
-7.84066e-09
-1.84333e-08
-2.84564e-08
-3.6857e-08
-4.26169e-08
-4.49284e-08
-4.33552e-08
-3.79389e-08
-2.92241e-08
-1.81929e-08
-6.12038e-09
5.62027e-09
1.57629e-08
2.33216e-08
2.7714e-08
2.87831e-08
2.68099e-08
2.24029e-08
1.62238e-08
9.1037e-09
1.81892e-09
-5.0126e-09
-1.09588e-08
-1.57793e-08
-1.94074e-08
-2.19141e-08
-2.34652e-08
-2.42769e-08
-2.45777e-08
-2.45809e-08
-2.44684e-08
-2.43726e-08
-2.43677e-08
-2.45047e-08
-2.4805e-08
-2.52462e-08
-2.58118e-08
-2.64795e-08
-2.72255e-08
-2.80265e-08
-2.88754e-08
-2.97373e-08
-3.06598e-08
-3.14909e-08
-3.24892e-08
-3.31097e-08
-3.39726e-08
-3.43634e-08
-3.4905e-08
-3.49069e-08
-3.47855e-08
-3.3919e-08
-3.17764e-08
-2.97212e-08
-1.96726e-08
-2.13799e-08
2.75621e-08
2.75652e-08
0.00195405
-0.00195405
-0.00490745
-0.00691942
-0.00813031
-0.00869007
-0.00874621
-0.00843551
-0.00787794
-0.00717307
-0.00639886
-0.00561267
-0.00485388
-0.00414724
-0.00350638
-0.00293692
-0.00243899
-0.00200928
-0.00164246
-0.00133223
-0.00107198
-0.000855257
-0.000676018
-0.000528749
-0.000408534
-0.000311055
-0.000232567
-0.000169849
-0.000120154
-8.11536e-05
-5.0886e-05
-2.77053e-05
-1.02326e-05
2.71287e-06
1.20839e-05
1.86409e-05
2.30094e-05
2.57045e-05
2.71467e-05
2.76743e-05
2.75518e-05
2.69781e-05
2.60947e-05
2.49946e-05
2.37328e-05
2.23378e-05
2.08227e-05
1.91956e-05
1.74676e-05
1.56583e-05
1.37972e-05
1.19232e-05
1.00811e-05
8.31727e-06
6.67463e-06
5.18872e-06
3.88472e-06
2.77608e-06
1.86468e-06
1.14261e-06
5.93526e-07
1.96009e-07
-7.36599e-08
-2.42498e-07
-3.35466e-07
-3.73892e-07
-3.752e-07
-3.53053e-07
-3.17735e-07
-2.76645e-07
-2.3482e-07
-1.95445e-07
-1.60316e-07
-1.30234e-07
-1.05326e-07
-8.52943e-08
-6.96013e-08
-5.7617e-08
-4.86856e-08
-4.2189e-08
-3.76012e-08
-3.44838e-08
-3.24743e-08
-3.13017e-08
-3.06879e-08
-3.06691e-08
-3.02573e-08
-3.23675e-08
-2.45333e-08
-4.89972e-08
6.55203e-08
-2.52778e-07
1.29111e-06
-2.7896e-06
1.73247e-05
-3.2246e-05
0.000218666
-0.000329694
0.00260385
-0.00238377
0.0289936
0.0289935
0.00401801
-0.00401801
-0.00987184
-0.0135457
-0.0153924
-0.0158461
-0.0153379
-0.0142366
-0.0128243
-0.0112996
-0.00979081
-0.00837397
-0.00708833
-0.0059491
-0.00495666
-0.00410297
-0.00337573
-0.00276098
-0.00224465
-0.0018134
-0.00145503
-0.00115867
-0.000914778
-0.000715063
-0.000552382
-0.000420625
-0.000314585
-0.000229843
-0.000162667
-0.000109909
-6.89299e-05
-3.75026e-05
-1.38007e-05
3.86035e-06
1.67394e-05
2.58105e-05
3.18961e-05
3.56874e-05
3.77551e-05
3.85587e-05
3.8456e-05
3.77131e-05
3.65163e-05
3.49863e-05
3.31947e-05
3.11807e-05
2.89676e-05
2.65759e-05
2.40337e-05
2.13817e-05
1.86738e-05
1.59744e-05
1.33525e-05
1.0875e-05
8.60013e-06
6.57292e-06
4.82167e-06
3.35734e-06
2.17508e-06
1.25713e-06
5.75315e-07
9.81429e-08
-2.12947e-07
-3.9804e-07
-4.90911e-07
-5.1915e-07
-5.04678e-07
-4.64344e-07
-4.10597e-07
-3.52196e-07
-2.9494e-07
-2.42341e-07
-1.96225e-07
-1.57243e-07
-1.25274e-07
-9.97312e-08
-7.98e-08
-6.45872e-08
-5.32131e-08
-4.48829e-08
-3.89246e-08
-3.47853e-08
-3.20121e-08
-3.02721e-08
-2.92099e-08
-2.88948e-08
-2.8002e-08
-3.02637e-08
-1.93614e-08
-4.7715e-08
1.07459e-07
-2.65474e-07
1.87129e-06
-3.04729e-06
2.588e-05
-3.68091e-05
0.000344865
-0.000397756
0.00438919
-0.00284349
0.0516208
0.0516207
0.00621567
-0.00621567
-0.0142999
-0.0183624
-0.0194157
-0.0185586
-0.016709
-0.0144991
-0.0122985
-0.0102885
-0.00853602
-0.00704671
-0.00579862
-0.0047602
-0.00389923
-0.00318647
-0.00259681
-0.00210923
-0.00170634
-0.00137379
-0.00109976
-0.000874451
-0.000689726
-0.000538812
-0.00041604
-0.000316659
-0.00023668
-0.00017275
-0.000122051
-8.2215e-05
-5.126e-05
-2.75005e-05
-9.58989e-06
3.90308e-06
1.38192e-05
2.08307e-05
2.55452e-05
2.84897e-05
3.0103e-05
3.07361e-05
3.06579e-05
3.0064e-05
2.90885e-05
2.78178e-05
2.63052e-05
2.45848e-05
2.2684e-05
2.06322e-05
1.84668e-05
1.62345e-05
1.39898e-05
1.17913e-05
9.69647e-06
7.75626e-06
6.01123e-06
4.48863e-06
3.20139e-06
2.14891e-06
1.31933e-06
6.92114e-07
2.42978e-07
-5.73611e-08
-2.45674e-07
-3.5089e-07
-3.96379e-07
-4.00927e-07
-3.79263e-07
-3.42555e-07
-2.98919e-07
-2.53948e-07
-2.1123e-07
-1.72829e-07
-1.39704e-07
-1.12064e-07
-8.96392e-08
-7.18909e-08
-5.81597e-08
-4.77629e-08
-4.00535e-08
-3.44639e-08
-3.05194e-08
-2.78333e-08
-2.60869e-08
-2.50574e-08
-2.44655e-08
-2.4448e-08
-2.37262e-08
-2.57275e-08
-1.53609e-08
-3.60056e-08
1.0692e-07
-1.38902e-07
1.79699e-06
-1.26416e-06
2.50424e-05
-1.34102e-05
0.00034767
-0.000140591
0.00481997
-0.000857963
0.0612653
0.0612652
0.00751344
-0.00751344
-0.0146552
-0.0162812
-0.0149618
-0.0125487
-0.0100746
-0.00795879
-0.00628242
-0.0049902
-0.00399566
-0.00322204
-0.00261163
-0.00212352
-0.00172904
-0.00140772
-0.00114462
-0.000928447
-0.000750524
-0.000604001
-0.000483405
-0.000384299
-0.000303051
-0.000236659
-0.00018263
-0.000138879
-0.000103658
-7.54985e-05
-5.31651e-05
-3.56185e-05
-2.1986e-05
-1.15223e-05
-3.63501e-06
2.43728e-06
6.89102e-06
1.0018e-05
1.2105e-05
1.33991e-05
1.41001e-05
1.43629e-05
1.43027e-05
1.40012e-05
1.3514e-05
1.28774e-05
1.21162e-05
1.12492e-05
1.02945e-05
9.27251e-06
8.20709e-06
7.12544e-06
6.05656e-06
5.02904e-06
4.06875e-06
3.19678e-06
2.42808e-06
1.77081e-06
1.22651e-06
7.90972e-07
4.55636e-07
2.0988e-07
4.15674e-08
-6.88596e-08
-1.36127e-07
-1.70965e-07
-1.82809e-07
-1.79294e-07
-1.66329e-07
-1.48317e-07
-1.28391e-07
-1.08649e-07
-9.03869e-08
-7.42979e-08
-6.06529e-08
-4.9441e-08
-4.04807e-08
-3.35006e-08
-2.81966e-08
-2.42671e-08
-2.14361e-08
-1.94671e-08
-1.81645e-08
-1.73693e-08
-1.69501e-08
-1.68197e-08
-1.68474e-08
-1.71291e-08
-1.69224e-08
-1.80642e-08
-1.16308e-08
-1.95818e-08
7.21303e-08
-4.28313e-09
1.24242e-06
4.63922e-07
1.73202e-05
1.02323e-05
0.00024072
0.000168577
0.00349251
0.00153601
0.0477884
0.0477884
0
0
0
0
0
0
0
0
0
0
0
0
0
0
0
0
0
0
0
0
0
0
0
0
0
0
0
0
0
0
0
0
0
0
0
0
0
0
0
0
0
0
0
0
0
0
0
0
0
0
0
0
0
0
0
0
0
0
0
0
0
0
0
0
0
0
0
0
0
0
0
0
0
0
0
0
0
0
0
0
0
0
0
0
0
0
0
0
0
0
0
0
0
0
0
0
0
0
0
0
0
0
0
0
0
0
0
0
0
0
0
0
0
0
0
0
0
0
0
0
0
0
0
0
0
0
0
0
0
0
0
0
0
0
0
0
0
0
0
0
0
0
0
0
0
0
0
0
0
0
0
0
0
0
0
0
0
0
0
0
0
0
0
0
0
0
0
0
0
0
0
0
0
0
0
0
0
0
0
0
0
0
0
0
0
0
0
0
0
0
0
0
0
0
0
0
0
0
0
0
0
0
0
0
