# vtk DataFile Version 2.0
FlowField
ASCII
DATASET STRUCTURED_GRID
DIMENSIONS 102 1 12 
POINTS 1224 double
0 0 0
0.3 0 0
0.6 0 0
0.9 0 0
1.2 0 0
1.5 0 0
1.8 0 0
2.1 0 0
2.4 0 0
2.7 0 0
3 0 0
3.3 0 0
3.6 0 0
3.9 0 0
4.2 0 0
4.5 0 0
4.8 0 0
5.1 0 0
5.4 0 0
5.7 0 0
6 0 0
6.3 0 0
6.6 0 0
6.9 0 0
7.2 0 0
7.5 0 0
7.8 0 0
8.1 0 0
8.4 0 0
8.7 0 0
9 0 0
9.3 0 0
9.6 0 0
9.9 0 0
10.2 0 0
10.5 0 0
10.8 0 0
11.1 0 0
11.4 0 0
11.7 0 0
12 0 0
12.3 0 0
12.6 0 0
12.9 0 0
13.2 0 0
13.5 0 0
13.8 0 0
14.1 0 0
14.4 0 0
14.7 0 0
15 0 0
15.3 0 0
15.6 0 0
15.9 0 0
16.2 0 0
16.5 0 0
16.8 0 0
17.1 0 0
17.4 0 0
17.7 0 0
18 0 0
18.3 0 0
18.6 0 0
18.9 0 0
19.2 0 0
19.5 0 0
19.8 0 0
20.1 0 0
20.4 0 0
20.7 0 0
21 0 0
21.3 0 0
21.6 0 0
21.9 0 0
22.2 0 0
22.5 0 0
22.8 0 0
23.1 0 0
23.4 0 0
23.7 0 0
24 0 0
24.3 0 0
24.6 0 0
24.9 0 0
25.2 0 0
25.5 0 0
25.8 0 0
26.1 0 0
26.4 0 0
26.7 0 0
27 0 0
27.3 0 0
27.6 0 0
27.9 0 0
28.2 0 0
28.5 0 0
28.8 0 0
29.1 0 0
29.4 0 0
29.7 0 0
30 0 0
30.3 0 0
0 0.1 0
0.3 0.1 0
0.6 0.1 0
0.9 0.1 0
1.2 0.1 0
1.5 0.1 0
1.8 0.1 0
2.1 0.1 0
2.4 0.1 0
2.7 0.1 0
3 0.1 0
3.3 0.1 0
3.6 0.1 0
3.9 0.1 0
4.2 0.1 0
4.5 0.1 0
4.8 0.1 0
5.1 0.1 0
5.4 0.1 0
5.7 0.1 0
6 0.1 0
6.3 0.1 0
6.6 0.1 0
6.9 0.1 0
7.2 0.1 0
7.5 0.1 0
7.8 0.1 0
8.1 0.1 0
8.4 0.1 0
8.7 0.1 0
9 0.1 0
9.3 0.1 0
9.6 0.1 0
9.9 0.1 0
10.2 0.1 0
10.5 0.1 0
10.8 0.1 0
11.1 0.1 0
11.4 0.1 0
11.7 0.1 0
12 0.1 0
12.3 0.1 0
12.6 0.1 0
12.9 0.1 0
13.2 0.1 0
13.5 0.1 0
13.8 0.1 0
14.1 0.1 0
14.4 0.1 0
14.7 0.1 0
15 0.1 0
15.3 0.1 0
15.6 0.1 0
15.9 0.1 0
16.2 0.1 0
16.5 0.1 0
16.8 0.1 0
17.1 0.1 0
17.4 0.1 0
17.7 0.1 0
18 0.1 0
18.3 0.1 0
18.6 0.1 0
18.9 0.1 0
19.2 0.1 0
19.5 0.1 0
19.8 0.1 0
20.1 0.1 0
20.4 0.1 0
20.7 0.1 0
21 0.1 0
21.3 0.1 0
21.6 0.1 0
21.9 0.1 0
22.2 0.1 0
22.5 0.1 0
22.8 0.1 0
23.1 0.1 0
23.4 0.1 0
23.7 0.1 0
24 0.1 0
24.3 0.1 0
24.6 0.1 0
24.9 0.1 0
25.2 0.1 0
25.5 0.1 0
25.8 0.1 0
26.1 0.1 0
26.4 0.1 0
26.7 0.1 0
27 0.1 0
27.3 0.1 0
27.6 0.1 0
27.9 0.1 0
28.2 0.1 0
28.5 0.1 0
28.8 0.1 0
29.1 0.1 0
29.4 0.1 0
29.7 0.1 0
30 0.1 0
30.3 0.1 0
0 0.2 0
0.3 0.2 0
0.6 0.2 0
0.9 0.2 0
1.2 0.2 0
1.5 0.2 0
1.8 0.2 0
2.1 0.2 0
2.4 0.2 0
2.7 0.2 0
3 0.2 0
3.3 0.2 0
3.6 0.2 0
3.9 0.2 0
4.2 0.2 0
4.5 0.2 0
4.8 0.2 0
5.1 0.2 0
5.4 0.2 0
5.7 0.2 0
6 0.2 0
6.3 0.2 0
6.6 0.2 0
6.9 0.2 0
7.2 0.2 0
7.5 0.2 0
7.8 0.2 0
8.1 0.2 0
8.4 0.2 0
8.7 0.2 0
9 0.2 0
9.3 0.2 0
9.6 0.2 0
9.9 0.2 0
10.2 0.2 0
10.5 0.2 0
10.8 0.2 0
11.1 0.2 0
11.4 0.2 0
11.7 0.2 0
12 0.2 0
12.3 0.2 0
12.6 0.2 0
12.9 0.2 0
13.2 0.2 0
13.5 0.2 0
13.8 0.2 0
14.1 0.2 0
14.4 0.2 0
14.7 0.2 0
15 0.2 0
15.3 0.2 0
15.6 0.2 0
15.9 0.2 0
16.2 0.2 0
16.5 0.2 0
16.8 0.2 0
17.1 0.2 0
17.4 0.2 0
17.7 0.2 0
18 0.2 0
18.3 0.2 0
18.6 0.2 0
18.9 0.2 0
19.2 0.2 0
19.5 0.2 0
19.8 0.2 0
20.1 0.2 0
20.4 0.2 0
20.7 0.2 0
21 0.2 0
21.3 0.2 0
21.6 0.2 0
21.9 0.2 0
22.2 0.2 0
22.5 0.2 0
22.8 0.2 0
23.1 0.2 0
23.4 0.2 0
23.7 0.2 0
24 0.2 0
24.3 0.2 0
24.6 0.2 0
24.9 0.2 0
25.2 0.2 0
25.5 0.2 0
25.8 0.2 0
26.1 0.2 0
26.4 0.2 0
26.7 0.2 0
27 0.2 0
27.3 0.2 0
27.6 0.2 0
27.9 0.2 0
28.2 0.2 0
28.5 0.2 0
28.8 0.2 0
29.1 0.2 0
29.4 0.2 0
29.7 0.2 0
30 0.2 0
30.3 0.2 0
0 0.3 0
0.3 0.3 0
0.6 0.3 0
0.9 0.3 0
1.2 0.3 0
1.5 0.3 0
1.8 0.3 0
2.1 0.3 0
2.4 0.3 0
2.7 0.3 0
3 0.3 0
3.3 0.3 0
3.6 0.3 0
3.9 0.3 0
4.2 0.3 0
4.5 0.3 0
4.8 0.3 0
5.1 0.3 0
5.4 0.3 0
5.7 0.3 0
6 0.3 0
6.3 0.3 0
6.6 0.3 0
6.9 0.3 0
7.2 0.3 0
7.5 0.3 0
7.8 0.3 0
8.1 0.3 0
8.4 0.3 0
8.7 0.3 0
9 0.3 0
9.3 0.3 0
9.6 0.3 0
9.9 0.3 0
10.2 0.3 0
10.5 0.3 0
10.8 0.3 0
11.1 0.3 0
11.4 0.3 0
11.7 0.3 0
12 0.3 0
12.3 0.3 0
12.6 0.3 0
12.9 0.3 0
13.2 0.3 0
13.5 0.3 0
13.8 0.3 0
14.1 0.3 0
14.4 0.3 0
14.7 0.3 0
15 0.3 0
15.3 0.3 0
15.6 0.3 0
15.9 0.3 0
16.2 0.3 0
16.5 0.3 0
16.8 0.3 0
17.1 0.3 0
17.4 0.3 0
17.7 0.3 0
18 0.3 0
18.3 0.3 0
18.6 0.3 0
18.9 0.3 0
19.2 0.3 0
19.5 0.3 0
19.8 0.3 0
20.1 0.3 0
20.4 0.3 0
20.7 0.3 0
21 0.3 0
21.3 0.3 0
21.6 0.3 0
21.9 0.3 0
22.2 0.3 0
22.5 0.3 0
22.8 0.3 0
23.1 0.3 0
23.4 0.3 0
23.7 0.3 0
24 0.3 0
24.3 0.3 0
24.6 0.3 0
24.9 0.3 0
25.2 0.3 0
25.5 0.3 0
25.8 0.3 0
26.1 0.3 0
26.4 0.3 0
26.7 0.3 0
27 0.3 0
27.3 0.3 0
27.6 0.3 0
27.9 0.3 0
28.2 0.3 0
28.5 0.3 0
28.8 0.3 0
29.1 0.3 0
29.4 0.3 0
29.7 0.3 0
30 0.3 0
30.3 0.3 0
0 0.4 0
0.3 0.4 0
0.6 0.4 0
0.9 0.4 0
1.2 0.4 0
1.5 0.4 0
1.8 0.4 0
2.1 0.4 0
2.4 0.4 0
2.7 0.4 0
3 0.4 0
3.3 0.4 0
3.6 0.4 0
3.9 0.4 0
4.2 0.4 0
4.5 0.4 0
4.8 0.4 0
5.1 0.4 0
5.4 0.4 0
5.7 0.4 0
6 0.4 0
6.3 0.4 0
6.6 0.4 0
6.9 0.4 0
7.2 0.4 0
7.5 0.4 0
7.8 0.4 0
8.1 0.4 0
8.4 0.4 0
8.7 0.4 0
9 0.4 0
9.3 0.4 0
9.6 0.4 0
9.9 0.4 0
10.2 0.4 0
10.5 0.4 0
10.8 0.4 0
11.1 0.4 0
11.4 0.4 0
11.7 0.4 0
12 0.4 0
12.3 0.4 0
12.6 0.4 0
12.9 0.4 0
13.2 0.4 0
13.5 0.4 0
13.8 0.4 0
14.1 0.4 0
14.4 0.4 0
14.7 0.4 0
15 0.4 0
15.3 0.4 0
15.6 0.4 0
15.9 0.4 0
16.2 0.4 0
16.5 0.4 0
16.8 0.4 0
17.1 0.4 0
17.4 0.4 0
17.7 0.4 0
18 0.4 0
18.3 0.4 0
18.6 0.4 0
18.9 0.4 0
19.2 0.4 0
19.5 0.4 0
19.8 0.4 0
20.1 0.4 0
20.4 0.4 0
20.7 0.4 0
21 0.4 0
21.3 0.4 0
21.6 0.4 0
21.9 0.4 0
22.2 0.4 0
22.5 0.4 0
22.8 0.4 0
23.1 0.4 0
23.4 0.4 0
23.7 0.4 0
24 0.4 0
24.3 0.4 0
24.6 0.4 0
24.9 0.4 0
25.2 0.4 0
25.5 0.4 0
25.8 0.4 0
26.1 0.4 0
26.4 0.4 0
26.7 0.4 0
27 0.4 0
27.3 0.4 0
27.6 0.4 0
27.9 0.4 0
28.2 0.4 0
28.5 0.4 0
28.8 0.4 0
29.1 0.4 0
29.4 0.4 0
29.7 0.4 0
30 0.4 0
30.3 0.4 0
0 0.5 0
0.3 0.5 0
0.6 0.5 0
0.9 0.5 0
1.2 0.5 0
1.5 0.5 0
1.8 0.5 0
2.1 0.5 0
2.4 0.5 0
2.7 0.5 0
3 0.5 0
3.3 0.5 0
3.6 0.5 0
3.9 0.5 0
4.2 0.5 0
4.5 0.5 0
4.8 0.5 0
5.1 0.5 0
5.4 0.5 0
5.7 0.5 0
6 0.5 0
6.3 0.5 0
6.6 0.5 0
6.9 0.5 0
7.2 0.5 0
7.5 0.5 0
7.8 0.5 0
8.1 0.5 0
8.4 0.5 0
8.7 0.5 0
9 0.5 0
9.3 0.5 0
9.6 0.5 0
9.9 0.5 0
10.2 0.5 0
10.5 0.5 0
10.8 0.5 0
11.1 0.5 0
11.4 0.5 0
11.7 0.5 0
12 0.5 0
12.3 0.5 0
12.6 0.5 0
12.9 0.5 0
13.2 0.5 0
13.5 0.5 0
13.8 0.5 0
14.1 0.5 0
14.4 0.5 0
14.7 0.5 0
15 0.5 0
15.3 0.5 0
15.6 0.5 0
15.9 0.5 0
16.2 0.5 0
16.5 0.5 0
16.8 0.5 0
17.1 0.5 0
17.4 0.5 0
17.7 0.5 0
18 0.5 0
18.3 0.5 0
18.6 0.5 0
18.9 0.5 0
19.2 0.5 0
19.5 0.5 0
19.8 0.5 0
20.1 0.5 0
20.4 0.5 0
20.7 0.5 0
21 0.5 0
21.3 0.5 0
21.6 0.5 0
21.9 0.5 0
22.2 0.5 0
22.5 0.5 0
22.8 0.5 0
23.1 0.5 0
23.4 0.5 0
23.7 0.5 0
24 0.5 0
24.3 0.5 0
24.6 0.5 0
24.9 0.5 0
25.2 0.5 0
25.5 0.5 0
25.8 0.5 0
26.1 0.5 0
26.4 0.5 0
26.7 0.5 0
27 0.5 0
27.3 0.5 0
27.6 0.5 0
27.9 0.5 0
28.2 0.5 0
28.5 0.5 0
28.8 0.5 0
29.1 0.5 0
29.4 0.5 0
29.7 0.5 0
30 0.5 0
30.3 0.5 0
0 0.6 0
0.3 0.6 0
0.6 0.6 0
0.9 0.6 0
1.2 0.6 0
1.5 0.6 0
1.8 0.6 0
2.1 0.6 0
2.4 0.6 0
2.7 0.6 0
3 0.6 0
3.3 0.6 0
3.6 0.6 0
3.9 0.6 0
4.2 0.6 0
4.5 0.6 0
4.8 0.6 0
5.1 0.6 0
5.4 0.6 0
5.7 0.6 0
6 0.6 0
6.3 0.6 0
6.6 0.6 0
6.9 0.6 0
7.2 0.6 0
7.5 0.6 0
7.8 0.6 0
8.1 0.6 0
8.4 0.6 0
8.7 0.6 0
9 0.6 0
9.3 0.6 0
9.6 0.6 0
9.9 0.6 0
10.2 0.6 0
10.5 0.6 0
10.8 0.6 0
11.1 0.6 0
11.4 0.6 0
11.7 0.6 0
12 0.6 0
12.3 0.6 0
12.6 0.6 0
12.9 0.6 0
13.2 0.6 0
13.5 0.6 0
13.8 0.6 0
14.1 0.6 0
14.4 0.6 0
14.7 0.6 0
15 0.6 0
15.3 0.6 0
15.6 0.6 0
15.9 0.6 0
16.2 0.6 0
16.5 0.6 0
16.8 0.6 0
17.1 0.6 0
17.4 0.6 0
17.7 0.6 0
18 0.6 0
18.3 0.6 0
18.6 0.6 0
18.9 0.6 0
19.2 0.6 0
19.5 0.6 0
19.8 0.6 0
20.1 0.6 0
20.4 0.6 0
20.7 0.6 0
21 0.6 0
21.3 0.6 0
21.6 0.6 0
21.9 0.6 0
22.2 0.6 0
22.5 0.6 0
22.8 0.6 0
23.1 0.6 0
23.4 0.6 0
23.7 0.6 0
24 0.6 0
24.3 0.6 0
24.6 0.6 0
24.9 0.6 0
25.2 0.6 0
25.5 0.6 0
25.8 0.6 0
26.1 0.6 0
26.4 0.6 0
26.7 0.6 0
27 0.6 0
27.3 0.6 0
27.6 0.6 0
27.9 0.6 0
28.2 0.6 0
28.5 0.6 0
28.8 0.6 0
29.1 0.6 0
29.4 0.6 0
29.7 0.6 0
30 0.6 0
30.3 0.6 0
0 0.7 0
0.3 0.7 0
0.6 0.7 0
0.9 0.7 0
1.2 0.7 0
1.5 0.7 0
1.8 0.7 0
2.1 0.7 0
2.4 0.7 0
2.7 0.7 0
3 0.7 0
3.3 0.7 0
3.6 0.7 0
3.9 0.7 0
4.2 0.7 0
4.5 0.7 0
4.8 0.7 0
5.1 0.7 0
5.4 0.7 0
5.7 0.7 0
6 0.7 0
6.3 0.7 0
6.6 0.7 0
6.9 0.7 0
7.2 0.7 0
7.5 0.7 0
7.8 0.7 0
8.1 0.7 0
8.4 0.7 0
8.7 0.7 0
9 0.7 0
9.3 0.7 0
9.6 0.7 0
9.9 0.7 0
10.2 0.7 0
10.5 0.7 0
10.8 0.7 0
11.1 0.7 0
11.4 0.7 0
11.7 0.7 0
12 0.7 0
12.3 0.7 0
12.6 0.7 0
12.9 0.7 0
13.2 0.7 0
13.5 0.7 0
13.8 0.7 0
14.1 0.7 0
14.4 0.7 0
14.7 0.7 0
15 0.7 0
15.3 0.7 0
15.6 0.7 0
15.9 0.7 0
16.2 0.7 0
16.5 0.7 0
16.8 0.7 0
17.1 0.7 0
17.4 0.7 0
17.7 0.7 0
18 0.7 0
18.3 0.7 0
18.6 0.7 0
18.9 0.7 0
19.2 0.7 0
19.5 0.7 0
19.8 0.7 0
20.1 0.7 0
20.4 0.7 0
20.7 0.7 0
21 0.7 0
21.3 0.7 0
21.6 0.7 0
21.9 0.7 0
22.2 0.7 0
22.5 0.7 0
22.8 0.7 0
23.1 0.7 0
23.4 0.7 0
23.7 0.7 0
24 0.7 0
24.3 0.7 0
24.6 0.7 0
24.9 0.7 0
25.2 0.7 0
25.5 0.7 0
25.8 0.7 0
26.1 0.7 0
26.4 0.7 0
26.7 0.7 0
27 0.7 0
27.3 0.7 0
27.6 0.7 0
27.9 0.7 0
28.2 0.7 0
28.5 0.7 0
28.8 0.7 0
29.1 0.7 0
29.4 0.7 0
29.7 0.7 0
30 0.7 0
30.3 0.7 0
0 0.8 0
0.3 0.8 0
0.6 0.8 0
0.9 0.8 0
1.2 0.8 0
1.5 0.8 0
1.8 0.8 0
2.1 0.8 0
2.4 0.8 0
2.7 0.8 0
3 0.8 0
3.3 0.8 0
3.6 0.8 0
3.9 0.8 0
4.2 0.8 0
4.5 0.8 0
4.8 0.8 0
5.1 0.8 0
5.4 0.8 0
5.7 0.8 0
6 0.8 0
6.3 0.8 0
6.6 0.8 0
6.9 0.8 0
7.2 0.8 0
7.5 0.8 0
7.8 0.8 0
8.1 0.8 0
8.4 0.8 0
8.7 0.8 0
9 0.8 0
9.3 0.8 0
9.6 0.8 0
9.9 0.8 0
10.2 0.8 0
10.5 0.8 0
10.8 0.8 0
11.1 0.8 0
11.4 0.8 0
11.7 0.8 0
12 0.8 0
12.3 0.8 0
12.6 0.8 0
12.9 0.8 0
13.2 0.8 0
13.5 0.8 0
13.8 0.8 0
14.1 0.8 0
14.4 0.8 0
14.7 0.8 0
15 0.8 0
15.3 0.8 0
15.6 0.8 0
15.9 0.8 0
16.2 0.8 0
16.5 0.8 0
16.8 0.8 0
17.1 0.8 0
17.4 0.8 0
17.7 0.8 0
18 0.8 0
18.3 0.8 0
18.6 0.8 0
18.9 0.8 0
19.2 0.8 0
19.5 0.8 0
19.8 0.8 0
20.1 0.8 0
20.4 0.8 0
20.7 0.8 0
21 0.8 0
21.3 0.8 0
21.6 0.8 0
21.9 0.8 0
22.2 0.8 0
22.5 0.8 0
22.8 0.8 0
23.1 0.8 0
23.4 0.8 0
23.7 0.8 0
24 0.8 0
24.3 0.8 0
24.6 0.8 0
24.9 0.8 0
25.2 0.8 0
25.5 0.8 0
25.8 0.8 0
26.1 0.8 0
26.4 0.8 0
26.7 0.8 0
27 0.8 0
27.3 0.8 0
27.6 0.8 0
27.9 0.8 0
28.2 0.8 0
28.5 0.8 0
28.8 0.8 0
29.1 0.8 0
29.4 0.8 0
29.7 0.8 0
30 0.8 0
30.3 0.8 0
0 0.9 0
0.3 0.9 0
0.6 0.9 0
0.9 0.9 0
1.2 0.9 0
1.5 0.9 0
1.8 0.9 0
2.1 0.9 0
2.4 0.9 0
2.7 0.9 0
3 0.9 0
3.3 0.9 0
3.6 0.9 0
3.9 0.9 0
4.2 0.9 0
4.5 0.9 0
4.8 0.9 0
5.1 0.9 0
5.4 0.9 0
5.7 0.9 0
6 0.9 0
6.3 0.9 0
6.6 0.9 0
6.9 0.9 0
7.2 0.9 0
7.5 0.9 0
7.8 0.9 0
8.1 0.9 0
8.4 0.9 0
8.7 0.9 0
9 0.9 0
9.3 0.9 0
9.6 0.9 0
9.9 0.9 0
10.2 0.9 0
10.5 0.9 0
10.8 0.9 0
11.1 0.9 0
11.4 0.9 0
11.7 0.9 0
12 0.9 0
12.3 0.9 0
12.6 0.9 0
12.9 0.9 0
13.2 0.9 0
13.5 0.9 0
13.8 0.9 0
14.1 0.9 0
14.4 0.9 0
14.7 0.9 0
15 0.9 0
15.3 0.9 0
15.6 0.9 0
15.9 0.9 0
16.2 0.9 0
16.5 0.9 0
16.8 0.9 0
17.1 0.9 0
17.4 0.9 0
17.7 0.9 0
18 0.9 0
18.3 0.9 0
18.6 0.9 0
18.9 0.9 0
19.2 0.9 0
19.5 0.9 0
19.8 0.9 0
20.1 0.9 0
20.4 0.9 0
20.7 0.9 0
21 0.9 0
21.3 0.9 0
21.6 0.9 0
21.9 0.9 0
22.2 0.9 0
22.5 0.9 0
22.8 0.9 0
23.1 0.9 0
23.4 0.9 0
23.7 0.9 0
24 0.9 0
24.3 0.9 0
24.6 0.9 0
24.9 0.9 0
25.2 0.9 0
25.5 0.9 0
25.8 0.9 0
26.1 0.9 0
26.4 0.9 0
26.7 0.9 0
27 0.9 0
27.3 0.9 0
27.6 0.9 0
27.9 0.9 0
28.2 0.9 0
28.5 0.9 0
28.8 0.9 0
29.1 0.9 0
29.4 0.9 0
29.7 0.9 0
30 0.9 0
30.3 0.9 0
0 1 0
0.3 1 0
0.6 1 0
0.9 1 0
1.2 1 0
1.5 1 0
1.8 1 0
2.1 1 0
2.4 1 0
2.7 1 0
3 1 0
3.3 1 0
3.6 1 0
3.9 1 0
4.2 1 0
4.5 1 0
4.8 1 0
5.1 1 0
5.4 1 0
5.7 1 0
6 1 0
6.3 1 0
6.6 1 0
6.9 1 0
7.2 1 0
7.5 1 0
7.8 1 0
8.1 1 0
8.4 1 0
8.7 1 0
9 1 0
9.3 1 0
9.6 1 0
9.9 1 0
10.2 1 0
10.5 1 0
10.8 1 0
11.1 1 0
11.4 1 0
11.7 1 0
12 1 0
12.3 1 0
12.6 1 0
12.9 1 0
13.2 1 0
13.5 1 0
13.8 1 0
14.1 1 0
14.4 1 0
14.7 1 0
15 1 0
15.3 1 0
15.6 1 0
15.9 1 0
16.2 1 0
16.5 1 0
16.8 1 0
17.1 1 0
17.4 1 0
17.7 1 0
18 1 0
18.3 1 0
18.6 1 0
18.9 1 0
19.2 1 0
19.5 1 0
19.8 1 0
20.1 1 0
20.4 1 0
20.7 1 0
21 1 0
21.3 1 0
21.6 1 0
21.9 1 0
22.2 1 0
22.5 1 0
22.8 1 0
23.1 1 0
23.4 1 0
23.7 1 0
24 1 0
24.3 1 0
24.6 1 0
24.9 1 0
25.2 1 0
25.5 1 0
25.8 1 0
26.1 1 0
26.4 1 0
26.7 1 0
27 1 0
27.3 1 0
27.6 1 0
27.9 1 0
28.2 1 0
28.5 1 0
28.8 1 0
29.1 1 0
29.4 1 0
29.7 1 0
30 1 0
30.3 1 0
0 1.1 0
0.3 1.1 0
0.6 1.1 0
0.9 1.1 0
1.2 1.1 0
1.5 1.1 0
1.8 1.1 0
2.1 1.1 0
2.4 1.1 0
2.7 1.1 0
3 1.1 0
3.3 1.1 0
3.6 1.1 0
3.9 1.1 0
4.2 1.1 0
4.5 1.1 0
4.8 1.1 0
5.1 1.1 0
5.4 1.1 0
5.7 1.1 0
6 1.1 0
6.3 1.1 0
6.6 1.1 0
6.9 1.1 0
7.2 1.1 0
7.5 1.1 0
7.8 1.1 0
8.1 1.1 0
8.4 1.1 0
8.7 1.1 0
9 1.1 0
9.3 1.1 0
9.6 1.1 0
9.9 1.1 0
10.2 1.1 0
10.5 1.1 0
10.8 1.1 0
11.1 1.1 0
11.4 1.1 0
11.7 1.1 0
12 1.1 0
12.3 1.1 0
12.6 1.1 0
12.9 1.1 0
13.2 1.1 0
13.5 1.1 0
13.8 1.1 0
14.1 1.1 0
14.4 1.1 0
14.7 1.1 0
15 1.1 0
15.3 1.1 0
15.6 1.1 0
15.9 1.1 0
16.2 1.1 0
16.5 1.1 0
16.8 1.1 0
17.1 1.1 0
17.4 1.1 0
17.7 1.1 0
18 1.1 0
18.3 1.1 0
18.6 1.1 0
18.9 1.1 0
19.2 1.1 0
19.5 1.1 0
19.8 1.1 0
20.1 1.1 0
20.4 1.1 0
20.7 1.1 0
21 1.1 0
21.3 1.1 0
21.6 1.1 0
21.9 1.1 0
22.2 1.1 0
22.5 1.1 0
22.8 1.1 0
23.1 1.1 0
23.4 1.1 0
23.7 1.1 0
24 1.1 0
24.3 1.1 0
24.6 1.1 0
24.9 1.1 0
25.2 1.1 0
25.5 1.1 0
25.8 1.1 0
26.1 1.1 0
26.4 1.1 0
26.7 1.1 0
27 1.1 0
27.3 1.1 0
27.6 1.1 0
27.9 1.1 0
28.2 1.1 0
28.5 1.1 0
28.8 1.1 0
29.1 1.1 0
29.4 1.1 0
29.7 1.1 0
30 1.1 0
30.3 1.1 0

POINT_DATA 1224

SCALARS v double
LOOKUP_TABLE default
0
0
0
0
0
0
0
0
0
0
0
0
0
0
0
0
0
0
0
0
0
0
0
0
0
0
0
0
0
0
0
0
0
0
0
0
0
0
0
0
0
0
0
0
0
0
0
0
0
0
0
0
0
0
0
0
0
0
0
0
0
0
0
0
0
0
0
0
0
0
0
0
0
0
0
0
0
0
0
0
0
0
0
0
0
0
0
0
0
0
0
0
0
0
0
0
0
0
0
0
0
0
-0.0630253
0.0630253
0.0557271
0.0385112
0.0243783
0.0149415
0.00927629
0.00604182
0.00419938
0.00310901
0.00242022
0.00195186
0.00161171
0.00135185
0.00114612
0.00097921
0.00084147
0.000726376
0.00062929
0.00054678
0.000476229
0.000415598
0.000363275
0.000317965
0.000278614
0.000244355
0.00021447
0.000188358
0.00016551
0.000145496
0.000127948
0.000112549
9.90278e-05
8.71487e-05
7.67074e-05
6.75266e-05
5.94517e-05
5.23476e-05
4.6096e-05
4.05936e-05
3.57502e-05
3.14863e-05
2.77319e-05
2.4426e-05
2.15148e-05
1.89511e-05
1.66931e-05
1.47045e-05
1.29529e-05
1.141e-05
1.00511e-05
8.85408e-06
7.79967e-06
6.87086e-06
6.05268e-06
5.33195e-06
4.69707e-06
4.13779e-06
3.64511e-06
3.21111e-06
2.82878e-06
2.49198e-06
2.19528e-06
1.9339e-06
1.70365e-06
1.50082e-06
1.32213e-06
1.16472e-06
1.02605e-06
9.03892e-07
7.96277e-07
7.01475e-07
6.1796e-07
5.44388e-07
4.79575e-07
4.22479e-07
3.7218e-07
3.2787e-07
2.88836e-07
2.54449e-07
2.24156e-07
1.97469e-07
1.73959e-07
1.53249e-07
1.35004e-07
1.18931e-07
1.04772e-07
9.22978e-08
8.1309e-08
7.16284e-08
6.31001e-08
5.55874e-08
4.89682e-08
4.31399e-08
3.79941e-08
3.35008e-08
2.93762e-08
2.62433e-08
2.12978e-08
2.13548e-08
4.00507e-12
4.00507e-12
-0.0516141
0.0516141
0.0605197
0.0485979
0.0351317
0.0247329
0.0176652
0.0130517
0.0100098
0.00792704
0.00643317
0.00531474
0.00444813
0.00375909
0.0032006
0.00274126
0.00235911
0.0020382
0.00176664
0.00153537
0.00133735
0.00116702
0.00101995
0.000892555
0.000781907
0.000685586
0.000601577
0.000528191
0.000463998
0.000407786
0.000358514
0.000315293
0.000277355
0.000244035
0.000214757
0.000189022
0.000166392
0.000146488
0.000128977
0.000113568
0.000100008
8.8071e-05
7.75629e-05
6.83114e-05
6.01656e-05
5.29928e-05
4.66763e-05
4.11136e-05
3.62145e-05
3.18997e-05
2.80994e-05
2.47522e-05
2.18039e-05
1.92069e-05
1.69194e-05
1.49044e-05
1.31295e-05
1.1566e-05
1.01887e-05
8.97547e-06
7.90673e-06
6.96526e-06
6.13591e-06
5.40532e-06
4.76173e-06
4.19478e-06
3.69533e-06
3.25536e-06
2.86777e-06
2.52633e-06
2.22554e-06
1.96057e-06
1.72715e-06
1.52152e-06
1.34037e-06
1.18079e-06
1.04021e-06
9.16365e-07
8.07267e-07
7.11157e-07
6.2649e-07
5.51904e-07
4.86197e-07
4.28313e-07
3.7732e-07
3.32398e-07
2.92824e-07
2.57961e-07
2.27248e-07
2.00191e-07
1.76355e-07
1.55357e-07
1.36858e-07
1.20564e-07
1.06193e-07
9.35935e-08
8.2219e-08
7.30292e-08
6.07905e-08
5.91593e-08
1.17088e-11
1.17088e-11
-0.031689
0.031689
0.0439855
0.0385944
0.0299835
0.0226205
0.0172756
0.0135694
0.0109667
0.00906482
0.00761231
0.00646147
0.00552523
0.00474976
0.00409957
0.00354967
0.00308154
0.00268096
0.00233673
0.00203987
0.00178308
0.00156037
0.00136679
0.0011982
0.00105115
0.00092269
0.000810342
0.000711984
0.000625796
0.000550216
0.000483896
0.000425669
0.000374523
0.000329579
0.000290071
0.000255331
0.000224777
0.000197897
0.000174245
0.000153431
0.000135112
0.000118985
0.000104789
9.22894e-05
8.12837e-05
7.15926e-05
6.30585e-05
5.55428e-05
4.89239e-05
4.30944e-05
3.79601e-05
3.34379e-05
2.94548e-05
2.59463e-05
2.2856e-05
2.01338e-05
1.7736e-05
1.56239e-05
1.37633e-05
1.21243e-05
1.06806e-05
9.40881e-06
8.28847e-06
7.30156e-06
6.43217e-06
5.66631e-06
4.99165e-06
4.39732e-06
3.87376e-06
3.41254e-06
3.00624e-06
2.64831e-06
2.33301e-06
2.05524e-06
1.81055e-06
1.59499e-06
1.40509e-06
1.23781e-06
1.09044e-06
9.60615e-07
8.46249e-07
7.45499e-07
6.56744e-07
5.78555e-07
5.09675e-07
4.48995e-07
3.95539e-07
3.48446e-07
3.06959e-07
2.70411e-07
2.38213e-07
2.09848e-07
1.84858e-07
1.62846e-07
1.43439e-07
1.26396e-07
1.11113e-07
9.84758e-08
8.27805e-08
7.96409e-08
2.03794e-11
2.03794e-11
-0.0146344
0.0146344
0.0221781
0.0203996
0.0164656
0.0128763
0.0101764
0.00824855
0.00685375
0.00580155
0.00497126
0.00429241
0.00372393
0.00324074
0.00282627
0.0024687
0.00215901
0.00189005
0.00165598
0.00145191
0.00127375
0.00111803
0.000981787
0.000862484
0.000757934
0.000666256
0.000585819
0.000515209
0.000453201
0.000398725
0.000350852
0.000308768
0.000271765
0.000239221
0.000210594
0.000185408
0.000163246
0.000143742
0.000126575
0.000111464
9.81615e-05
8.64498e-05
7.6138e-05
6.70582e-05
5.90628e-05
5.20219e-05
4.58213e-05
4.03605e-05
3.55511e-05
3.13152e-05
2.75844e-05
2.42983e-05
2.14039e-05
1.88544e-05
1.66087e-05
1.46307e-05
1.28882e-05
1.13534e-05
1.00013e-05
8.81036e-06
7.76123e-06
6.83705e-06
6.02294e-06
5.30577e-06
4.67402e-06
4.11749e-06
3.62724e-06
3.19536e-06
2.81491e-06
2.47976e-06
2.18451e-06
1.92442e-06
1.6953e-06
1.49346e-06
1.31565e-06
1.15901e-06
1.02102e-06
8.99466e-07
7.92379e-07
6.98043e-07
6.14938e-07
5.41727e-07
4.77232e-07
4.20415e-07
3.70362e-07
3.26268e-07
2.87422e-07
2.532e-07
2.23051e-07
1.96491e-07
1.73091e-07
1.52476e-07
1.34314e-07
1.18315e-07
1.04212e-07
9.18174e-08
8.07369e-08
7.14781e-08
6.03567e-08
5.76721e-08
2.63285e-11
2.63285e-11
3.04581e-09
-3.04581e-09
8.48384e-09
1.9617e-08
1.42003e-08
6.56138e-09
2.1703e-09
-3.98199e-09
-8.32325e-09
-6.87623e-09
-3.51161e-09
-1.29824e-09
-2.25956e-10
4.86529e-10
1.35476e-09
1.25788e-09
5.08764e-10
7.0367e-10
1.04734e-09
5.80846e-10
-8.20575e-11
-1.56103e-10
-6.43924e-11
-2.41919e-10
-3.1465e-10
-9.32382e-11
2.58058e-10
4.21493e-10
3.68084e-10
2.51329e-10
2.57617e-10
3.47743e-10
3.45878e-10
2.99335e-10
3.4107e-10
4.0487e-10
3.74273e-10
3.07296e-10
3.13775e-10
3.69818e-10
3.59876e-10
3.19892e-10
3.3767e-10
3.53135e-10
3.29595e-10
3.13054e-10
2.99102e-10
2.80946e-10
2.6649e-10
2.51269e-10
2.38783e-10
2.27049e-10
2.10768e-10
1.94551e-10
1.84073e-10
1.74789e-10
1.61313e-10
1.48715e-10
1.37611e-10
1.26998e-10
1.17833e-10
1.08532e-10
9.93324e-11
9.07784e-11
8.36265e-11
7.75973e-11
7.11751e-11
6.45623e-11
5.89471e-11
5.44189e-11
5.03019e-11
4.65445e-11
4.33217e-11
4.04253e-11
3.77453e-11
3.56363e-11
3.39764e-11
3.22322e-11
3.05788e-11
2.91582e-11
2.76804e-11
2.59613e-11
2.39158e-11
2.14753e-11
1.85361e-11
1.50061e-11
1.08143e-11
5.86148e-12
1.13228e-13
-6.41139e-12
-1.3667e-11
-2.15519e-11
-2.98905e-11
-3.8399e-11
-4.66001e-11
-5.37821e-11
-5.86438e-11
-5.96459e-11
-5.22562e-11
-3.47623e-11
2.72228e-11
2.72228e-11
0.0146343
-0.0146343
-0.022178
-0.0203996
-0.0164656
-0.0128763
-0.0101764
-0.00824856
-0.00685377
-0.00580156
-0.00497127
-0.00429241
-0.00372393
-0.00324074
-0.00282627
-0.0024687
-0.00215901
-0.00189005
-0.00165597
-0.0014519
-0.00127375
-0.00111803
-0.000981787
-0.000862484
-0.000757935
-0.000666256
-0.000585818
-0.000515209
-0.0004532
-0.000398725
-0.000350851
-0.000308768
-0.000271764
-0.000239221
-0.000210593
-0.000185407
-0.000163245
-0.000143741
-0.000126574
-0.000111463
-9.81609e-05
-8.64492e-05
-7.61374e-05
-6.70576e-05
-5.90622e-05
-5.20214e-05
-4.58208e-05
-4.036e-05
-3.55506e-05
-3.13148e-05
-2.75839e-05
-2.42979e-05
-2.14035e-05
-1.88541e-05
-1.66084e-05
-1.46303e-05
-1.28879e-05
-1.13531e-05
-1.00011e-05
-8.81013e-06
-7.76102e-06
-6.83685e-06
-6.02276e-06
-5.30561e-06
-4.67387e-06
-4.11735e-06
-3.62711e-06
-3.19524e-06
-2.8148e-06
-2.47966e-06
-2.18442e-06
-1.92434e-06
-1.69522e-06
-1.49339e-06
-1.31558e-06
-1.15895e-06
-1.02096e-06
-8.99408e-07
-7.92324e-07
-6.9799e-07
-6.14888e-07
-5.4168e-07
-4.77189e-07
-4.20377e-07
-3.70329e-07
-3.26241e-07
-2.87403e-07
-2.5319e-07
-2.23052e-07
-1.96503e-07
-1.73117e-07
-1.52516e-07
-1.34369e-07
-1.18385e-07
-1.04297e-07
-9.19155e-08
-8.08436e-08
-7.15865e-08
-6.04507e-08
-5.77364e-08
2.30404e-11
2.30404e-11
0.031689
-0.031689
-0.0439855
-0.0385944
-0.0299835
-0.0226205
-0.0172756
-0.0135694
-0.0109667
-0.00906482
-0.00761231
-0.00646147
-0.00552522
-0.00474976
-0.00409957
-0.00354967
-0.00308154
-0.00268096
-0.00233673
-0.00203987
-0.00178308
-0.00156037
-0.00136679
-0.0011982
-0.00105115
-0.000922689
-0.000810342
-0.000711983
-0.000625795
-0.000550216
-0.000483896
-0.000425669
-0.000374523
-0.000329579
-0.000290071
-0.000255331
-0.000224776
-0.000197896
-0.000174245
-0.000153431
-0.000135111
-0.000118985
-0.000104788
-9.22889e-05
-8.12833e-05
-7.15922e-05
-6.30581e-05
-5.55425e-05
-4.89236e-05
-4.30941e-05
-3.79598e-05
-3.34376e-05
-2.94545e-05
-2.59461e-05
-2.28557e-05
-2.01336e-05
-1.77358e-05
-1.56237e-05
-1.37631e-05
-1.21242e-05
-1.06805e-05
-9.40867e-06
-8.28835e-06
-7.30144e-06
-6.43206e-06
-5.66621e-06
-4.99156e-06
-4.39724e-06
-3.87368e-06
-3.41247e-06
-3.00617e-06
-2.64825e-06
-2.33295e-06
-2.05519e-06
-1.8105e-06
-1.59494e-06
-1.40505e-06
-1.23777e-06
-1.0904e-06
-9.60578e-07
-8.46214e-07
-7.45466e-07
-6.56713e-07
-5.78528e-07
-5.09652e-07
-4.48976e-07
-3.95526e-07
-3.4844e-07
-3.06961e-07
-2.70421e-07
-2.38233e-07
-2.09879e-07
-1.849e-07
-1.629e-07
-1.43503e-07
-1.2647e-07
-1.11192e-07
-9.85552e-08
-8.28466e-08
-7.96878e-08
1.56858e-11
1.56858e-11
0.051614
-0.051614
-0.0605197
-0.0485979
-0.0351317
-0.0247329
-0.0176652
-0.0130517
-0.0100098
-0.00792703
-0.00643317
-0.00531473
-0.00444813
-0.00375909
-0.0032006
-0.00274126
-0.00235911
-0.0020382
-0.00176664
-0.00153537
-0.00133735
-0.00116702
-0.00101995
-0.000892554
-0.000781906
-0.000685585
-0.000601577
-0.000528191
-0.000463998
-0.000407786
-0.000358514
-0.000315293
-0.000277355
-0.000244035
-0.000214757
-0.000189022
-0.000166392
-0.000146488
-0.000128977
-0.000113568
-0.000100007
-8.80707e-05
-7.75626e-05
-6.83112e-05
-6.01654e-05
-5.29926e-05
-4.66761e-05
-4.11134e-05
-3.62143e-05
-3.18996e-05
-2.80993e-05
-2.4752e-05
-2.18037e-05
-1.92068e-05
-1.69193e-05
-1.49043e-05
-1.31294e-05
-1.15659e-05
-1.01886e-05
-8.97539e-06
-7.90665e-06
-6.96519e-06
-6.13585e-06
-5.40527e-06
-4.76168e-06
-4.19473e-06
-3.69529e-06
-3.25532e-06
-2.86773e-06
-2.5263e-06
-2.22551e-06
-1.96054e-06
-1.72712e-06
-1.52149e-06
-1.34035e-06
-1.18077e-06
-1.04019e-06
-9.16344e-07
-8.07246e-07
-7.11137e-07
-6.26472e-07
-5.51886e-07
-4.86181e-07
-4.28299e-07
-3.77308e-07
-3.32389e-07
-2.92818e-07
-2.57958e-07
-2.2725e-07
-2.00198e-07
-1.76368e-07
-1.55376e-07
-1.36882e-07
-1.20595e-07
-1.06229e-07
-9.3634e-08
-8.22615e-08
-7.30708e-08
-6.08215e-08
-5.91821e-08
7.98364e-12
7.98364e-12
0.0630253
-0.0630253
-0.0557271
-0.0385112
-0.0243784
-0.0149415
-0.00927631
-0.00604181
-0.00419936
-0.00310899
-0.00242022
-0.00195186
-0.00161171
-0.00135185
-0.00114612
-0.000979213
-0.000841471
-0.000726377
-0.000629292
-0.000546782
-0.00047623
-0.000415598
-0.000363275
-0.000317964
-0.000278613
-0.000244354
-0.00021447
-0.000188358
-0.00016551
-0.000145496
-0.000127948
-0.000112549
-9.90278e-05
-8.71485e-05
-7.67074e-05
-6.75267e-05
-5.94516e-05
-5.23473e-05
-4.60958e-05
-4.05936e-05
-3.57502e-05
-3.14862e-05
-2.77319e-05
-2.4426e-05
-2.15148e-05
-1.8951e-05
-1.66931e-05
-1.47044e-05
-1.29528e-05
-1.141e-05
-1.00511e-05
-8.85404e-06
-7.79962e-06
-6.87082e-06
-6.05265e-06
-5.33193e-06
-4.69704e-06
-4.13777e-06
-3.64509e-06
-3.21108e-06
-2.82876e-06
-2.49196e-06
-2.19526e-06
-1.93389e-06
-1.70364e-06
-1.5008e-06
-1.32212e-06
-1.16471e-06
-1.02604e-06
-9.03883e-07
-7.96268e-07
-7.01467e-07
-6.17952e-07
-5.4438e-07
-4.79568e-07
-4.22472e-07
-3.72174e-07
-3.27864e-07
-2.8883e-07
-2.54443e-07
-2.2415e-07
-1.97464e-07
-1.73955e-07
-1.53245e-07
-1.35e-07
-1.18928e-07
-1.0477e-07
-9.2297e-08
-8.13095e-08
-7.16303e-08
-6.31036e-08
-5.55925e-08
-4.8975e-08
-4.31483e-08
-3.80039e-08
-3.35115e-08
-2.93867e-08
-2.62529e-08
-2.13019e-08
-2.13582e-08
2.54144e-12
2.54144e-12
0
0
0
0
0
0
0
0
0
0
0
0
0
0
0
0
0
0
0
0
0
0
0
0
0
0
0
0
0
0
0
0
0
0
0
0
0
0
0
0
0
0
0
0
0
0
0
0
0
0
0
0
0
0
0
0
0
0
0
0
0
0
0
0
0
0
0
0
0
0
0
0
0
0
0
0
0
0
0
0
0
0
0
0
0
0
0
0
0
0
0
0
0
0
0
0
0
0
0
0
0
0
0
0
0
0
0
0
0
0
0
0
0
0
0
0
0
0
0
0
0
0
0
0
0
0
0
0
0
0
0
0
0
0
0
0
0
0
0
0
0
0
0
0
0
0
0
0
0
0
0
0
0
0
0
0
0
0
0
0
0
0
0
0
0
0
0
0
0
0
0
0
0
0
0
0
0
0
0
0
0
0
0
0
0
0
0
0
0
0
0
0
0
0
0
0
0
0
0
0
0
0
0
0
