# vtk DataFile Version 2.0
FlowField
ASCII
DATASET STRUCTURED_GRID
DIMENSIONS 101 11 1 
POINTS 1111 double
0 0 0
0.3 0 0
0.6 0 0
0.9 0 0
1.2 0 0
1.5 0 0
1.8 0 0
2.1 0 0
2.4 0 0
2.7 0 0
3 0 0
3.3 0 0
3.6 0 0
3.9 0 0
4.2 0 0
4.5 0 0
4.8 0 0
5.1 0 0
5.4 0 0
5.7 0 0
6 0 0
6.3 0 0
6.6 0 0
6.9 0 0
7.2 0 0
7.5 0 0
7.8 0 0
8.1 0 0
8.4 0 0
8.7 0 0
9 0 0
9.3 0 0
9.6 0 0
9.9 0 0
10.2 0 0
10.5 0 0
10.8 0 0
11.1 0 0
11.4 0 0
11.7 0 0
12 0 0
12.3 0 0
12.6 0 0
12.9 0 0
13.2 0 0
13.5 0 0
13.8 0 0
14.1 0 0
14.4 0 0
14.7 0 0
15 0 0
15.3 0 0
15.6 0 0
15.9 0 0
16.2 0 0
16.5 0 0
16.8 0 0
17.1 0 0
17.4 0 0
17.7 0 0
18 0 0
18.3 0 0
18.6 0 0
18.9 0 0
19.2 0 0
19.5 0 0
19.8 0 0
20.1 0 0
20.4 0 0
20.7 0 0
21 0 0
21.3 0 0
21.6 0 0
21.9 0 0
22.2 0 0
22.5 0 0
22.8 0 0
23.1 0 0
23.4 0 0
23.7 0 0
24 0 0
24.3 0 0
24.6 0 0
24.9 0 0
25.2 0 0
25.5 0 0
25.8 0 0
26.1 0 0
26.4 0 0
26.7 0 0
27 0 0
27.3 0 0
27.6 0 0
27.9 0 0
28.2 0 0
28.5 0 0
28.8 0 0
29.1 0 0
29.4 0 0
29.7 0 0
30 0 0
0 0.1 0
0.3 0.1 0
0.6 0.1 0
0.9 0.1 0
1.2 0.1 0
1.5 0.1 0
1.8 0.1 0
2.1 0.1 0
2.4 0.1 0
2.7 0.1 0
3 0.1 0
3.3 0.1 0
3.6 0.1 0
3.9 0.1 0
4.2 0.1 0
4.5 0.1 0
4.8 0.1 0
5.1 0.1 0
5.4 0.1 0
5.7 0.1 0
6 0.1 0
6.3 0.1 0
6.6 0.1 0
6.9 0.1 0
7.2 0.1 0
7.5 0.1 0
7.8 0.1 0
8.1 0.1 0
8.4 0.1 0
8.7 0.1 0
9 0.1 0
9.3 0.1 0
9.6 0.1 0
9.9 0.1 0
10.2 0.1 0
10.5 0.1 0
10.8 0.1 0
11.1 0.1 0
11.4 0.1 0
11.7 0.1 0
12 0.1 0
12.3 0.1 0
12.6 0.1 0
12.9 0.1 0
13.2 0.1 0
13.5 0.1 0
13.8 0.1 0
14.1 0.1 0
14.4 0.1 0
14.7 0.1 0
15 0.1 0
15.3 0.1 0
15.6 0.1 0
15.9 0.1 0
16.2 0.1 0
16.5 0.1 0
16.8 0.1 0
17.1 0.1 0
17.4 0.1 0
17.7 0.1 0
18 0.1 0
18.3 0.1 0
18.6 0.1 0
18.9 0.1 0
19.2 0.1 0
19.5 0.1 0
19.8 0.1 0
20.1 0.1 0
20.4 0.1 0
20.7 0.1 0
21 0.1 0
21.3 0.1 0
21.6 0.1 0
21.9 0.1 0
22.2 0.1 0
22.5 0.1 0
22.8 0.1 0
23.1 0.1 0
23.4 0.1 0
23.7 0.1 0
24 0.1 0
24.3 0.1 0
24.6 0.1 0
24.9 0.1 0
25.2 0.1 0
25.5 0.1 0
25.8 0.1 0
26.1 0.1 0
26.4 0.1 0
26.7 0.1 0
27 0.1 0
27.3 0.1 0
27.6 0.1 0
27.9 0.1 0
28.2 0.1 0
28.5 0.1 0
28.8 0.1 0
29.1 0.1 0
29.4 0.1 0
29.7 0.1 0
30 0.1 0
0 0.2 0
0.3 0.2 0
0.6 0.2 0
0.9 0.2 0
1.2 0.2 0
1.5 0.2 0
1.8 0.2 0
2.1 0.2 0
2.4 0.2 0
2.7 0.2 0
3 0.2 0
3.3 0.2 0
3.6 0.2 0
3.9 0.2 0
4.2 0.2 0
4.5 0.2 0
4.8 0.2 0
5.1 0.2 0
5.4 0.2 0
5.7 0.2 0
6 0.2 0
6.3 0.2 0
6.6 0.2 0
6.9 0.2 0
7.2 0.2 0
7.5 0.2 0
7.8 0.2 0
8.1 0.2 0
8.4 0.2 0
8.7 0.2 0
9 0.2 0
9.3 0.2 0
9.6 0.2 0
9.9 0.2 0
10.2 0.2 0
10.5 0.2 0
10.8 0.2 0
11.1 0.2 0
11.4 0.2 0
11.7 0.2 0
12 0.2 0
12.3 0.2 0
12.6 0.2 0
12.9 0.2 0
13.2 0.2 0
13.5 0.2 0
13.8 0.2 0
14.1 0.2 0
14.4 0.2 0
14.7 0.2 0
15 0.2 0
15.3 0.2 0
15.6 0.2 0
15.9 0.2 0
16.2 0.2 0
16.5 0.2 0
16.8 0.2 0
17.1 0.2 0
17.4 0.2 0
17.7 0.2 0
18 0.2 0
18.3 0.2 0
18.6 0.2 0
18.9 0.2 0
19.2 0.2 0
19.5 0.2 0
19.8 0.2 0
20.1 0.2 0
20.4 0.2 0
20.7 0.2 0
21 0.2 0
21.3 0.2 0
21.6 0.2 0
21.9 0.2 0
22.2 0.2 0
22.5 0.2 0
22.8 0.2 0
23.1 0.2 0
23.4 0.2 0
23.7 0.2 0
24 0.2 0
24.3 0.2 0
24.6 0.2 0
24.9 0.2 0
25.2 0.2 0
25.5 0.2 0
25.8 0.2 0
26.1 0.2 0
26.4 0.2 0
26.7 0.2 0
27 0.2 0
27.3 0.2 0
27.6 0.2 0
27.9 0.2 0
28.2 0.2 0
28.5 0.2 0
28.8 0.2 0
29.1 0.2 0
29.4 0.2 0
29.7 0.2 0
30 0.2 0
0 0.3 0
0.3 0.3 0
0.6 0.3 0
0.9 0.3 0
1.2 0.3 0
1.5 0.3 0
1.8 0.3 0
2.1 0.3 0
2.4 0.3 0
2.7 0.3 0
3 0.3 0
3.3 0.3 0
3.6 0.3 0
3.9 0.3 0
4.2 0.3 0
4.5 0.3 0
4.8 0.3 0
5.1 0.3 0
5.4 0.3 0
5.7 0.3 0
6 0.3 0
6.3 0.3 0
6.6 0.3 0
6.9 0.3 0
7.2 0.3 0
7.5 0.3 0
7.8 0.3 0
8.1 0.3 0
8.4 0.3 0
8.7 0.3 0
9 0.3 0
9.3 0.3 0
9.6 0.3 0
9.9 0.3 0
10.2 0.3 0
10.5 0.3 0
10.8 0.3 0
11.1 0.3 0
11.4 0.3 0
11.7 0.3 0
12 0.3 0
12.3 0.3 0
12.6 0.3 0
12.9 0.3 0
13.2 0.3 0
13.5 0.3 0
13.8 0.3 0
14.1 0.3 0
14.4 0.3 0
14.7 0.3 0
15 0.3 0
15.3 0.3 0
15.6 0.3 0
15.9 0.3 0
16.2 0.3 0
16.5 0.3 0
16.8 0.3 0
17.1 0.3 0
17.4 0.3 0
17.7 0.3 0
18 0.3 0
18.3 0.3 0
18.6 0.3 0
18.9 0.3 0
19.2 0.3 0
19.5 0.3 0
19.8 0.3 0
20.1 0.3 0
20.4 0.3 0
20.7 0.3 0
21 0.3 0
21.3 0.3 0
21.6 0.3 0
21.9 0.3 0
22.2 0.3 0
22.5 0.3 0
22.8 0.3 0
23.1 0.3 0
23.4 0.3 0
23.7 0.3 0
24 0.3 0
24.3 0.3 0
24.6 0.3 0
24.9 0.3 0
25.2 0.3 0
25.5 0.3 0
25.8 0.3 0
26.1 0.3 0
26.4 0.3 0
26.7 0.3 0
27 0.3 0
27.3 0.3 0
27.6 0.3 0
27.9 0.3 0
28.2 0.3 0
28.5 0.3 0
28.8 0.3 0
29.1 0.3 0
29.4 0.3 0
29.7 0.3 0
30 0.3 0
0 0.4 0
0.3 0.4 0
0.6 0.4 0
0.9 0.4 0
1.2 0.4 0
1.5 0.4 0
1.8 0.4 0
2.1 0.4 0
2.4 0.4 0
2.7 0.4 0
3 0.4 0
3.3 0.4 0
3.6 0.4 0
3.9 0.4 0
4.2 0.4 0
4.5 0.4 0
4.8 0.4 0
5.1 0.4 0
5.4 0.4 0
5.7 0.4 0
6 0.4 0
6.3 0.4 0
6.6 0.4 0
6.9 0.4 0
7.2 0.4 0
7.5 0.4 0
7.8 0.4 0
8.1 0.4 0
8.4 0.4 0
8.7 0.4 0
9 0.4 0
9.3 0.4 0
9.6 0.4 0
9.9 0.4 0
10.2 0.4 0
10.5 0.4 0
10.8 0.4 0
11.1 0.4 0
11.4 0.4 0
11.7 0.4 0
12 0.4 0
12.3 0.4 0
12.6 0.4 0
12.9 0.4 0
13.2 0.4 0
13.5 0.4 0
13.8 0.4 0
14.1 0.4 0
14.4 0.4 0
14.7 0.4 0
15 0.4 0
15.3 0.4 0
15.6 0.4 0
15.9 0.4 0
16.2 0.4 0
16.5 0.4 0
16.8 0.4 0
17.1 0.4 0
17.4 0.4 0
17.7 0.4 0
18 0.4 0
18.3 0.4 0
18.6 0.4 0
18.9 0.4 0
19.2 0.4 0
19.5 0.4 0
19.8 0.4 0
20.1 0.4 0
20.4 0.4 0
20.7 0.4 0
21 0.4 0
21.3 0.4 0
21.6 0.4 0
21.9 0.4 0
22.2 0.4 0
22.5 0.4 0
22.8 0.4 0
23.1 0.4 0
23.4 0.4 0
23.7 0.4 0
24 0.4 0
24.3 0.4 0
24.6 0.4 0
24.9 0.4 0
25.2 0.4 0
25.5 0.4 0
25.8 0.4 0
26.1 0.4 0
26.4 0.4 0
26.7 0.4 0
27 0.4 0
27.3 0.4 0
27.6 0.4 0
27.9 0.4 0
28.2 0.4 0
28.5 0.4 0
28.8 0.4 0
29.1 0.4 0
29.4 0.4 0
29.7 0.4 0
30 0.4 0
0 0.5 0
0.3 0.5 0
0.6 0.5 0
0.9 0.5 0
1.2 0.5 0
1.5 0.5 0
1.8 0.5 0
2.1 0.5 0
2.4 0.5 0
2.7 0.5 0
3 0.5 0
3.3 0.5 0
3.6 0.5 0
3.9 0.5 0
4.2 0.5 0
4.5 0.5 0
4.8 0.5 0
5.1 0.5 0
5.4 0.5 0
5.7 0.5 0
6 0.5 0
6.3 0.5 0
6.6 0.5 0
6.9 0.5 0
7.2 0.5 0
7.5 0.5 0
7.8 0.5 0
8.1 0.5 0
8.4 0.5 0
8.7 0.5 0
9 0.5 0
9.3 0.5 0
9.6 0.5 0
9.9 0.5 0
10.2 0.5 0
10.5 0.5 0
10.8 0.5 0
11.1 0.5 0
11.4 0.5 0
11.7 0.5 0
12 0.5 0
12.3 0.5 0
12.6 0.5 0
12.9 0.5 0
13.2 0.5 0
13.5 0.5 0
13.8 0.5 0
14.1 0.5 0
14.4 0.5 0
14.7 0.5 0
15 0.5 0
15.3 0.5 0
15.6 0.5 0
15.9 0.5 0
16.2 0.5 0
16.5 0.5 0
16.8 0.5 0
17.1 0.5 0
17.4 0.5 0
17.7 0.5 0
18 0.5 0
18.3 0.5 0
18.6 0.5 0
18.9 0.5 0
19.2 0.5 0
19.5 0.5 0
19.8 0.5 0
20.1 0.5 0
20.4 0.5 0
20.7 0.5 0
21 0.5 0
21.3 0.5 0
21.6 0.5 0
21.9 0.5 0
22.2 0.5 0
22.5 0.5 0
22.8 0.5 0
23.1 0.5 0
23.4 0.5 0
23.7 0.5 0
24 0.5 0
24.3 0.5 0
24.6 0.5 0
24.9 0.5 0
25.2 0.5 0
25.5 0.5 0
25.8 0.5 0
26.1 0.5 0
26.4 0.5 0
26.7 0.5 0
27 0.5 0
27.3 0.5 0
27.6 0.5 0
27.9 0.5 0
28.2 0.5 0
28.5 0.5 0
28.8 0.5 0
29.1 0.5 0
29.4 0.5 0
29.7 0.5 0
30 0.5 0
0 0.6 0
0.3 0.6 0
0.6 0.6 0
0.9 0.6 0
1.2 0.6 0
1.5 0.6 0
1.8 0.6 0
2.1 0.6 0
2.4 0.6 0
2.7 0.6 0
3 0.6 0
3.3 0.6 0
3.6 0.6 0
3.9 0.6 0
4.2 0.6 0
4.5 0.6 0
4.8 0.6 0
5.1 0.6 0
5.4 0.6 0
5.7 0.6 0
6 0.6 0
6.3 0.6 0
6.6 0.6 0
6.9 0.6 0
7.2 0.6 0
7.5 0.6 0
7.8 0.6 0
8.1 0.6 0
8.4 0.6 0
8.7 0.6 0
9 0.6 0
9.3 0.6 0
9.6 0.6 0
9.9 0.6 0
10.2 0.6 0
10.5 0.6 0
10.8 0.6 0
11.1 0.6 0
11.4 0.6 0
11.7 0.6 0
12 0.6 0
12.3 0.6 0
12.6 0.6 0
12.9 0.6 0
13.2 0.6 0
13.5 0.6 0
13.8 0.6 0
14.1 0.6 0
14.4 0.6 0
14.7 0.6 0
15 0.6 0
15.3 0.6 0
15.6 0.6 0
15.9 0.6 0
16.2 0.6 0
16.5 0.6 0
16.8 0.6 0
17.1 0.6 0
17.4 0.6 0
17.7 0.6 0
18 0.6 0
18.3 0.6 0
18.6 0.6 0
18.9 0.6 0
19.2 0.6 0
19.5 0.6 0
19.8 0.6 0
20.1 0.6 0
20.4 0.6 0
20.7 0.6 0
21 0.6 0
21.3 0.6 0
21.6 0.6 0
21.9 0.6 0
22.2 0.6 0
22.5 0.6 0
22.8 0.6 0
23.1 0.6 0
23.4 0.6 0
23.7 0.6 0
24 0.6 0
24.3 0.6 0
24.6 0.6 0
24.9 0.6 0
25.2 0.6 0
25.5 0.6 0
25.8 0.6 0
26.1 0.6 0
26.4 0.6 0
26.7 0.6 0
27 0.6 0
27.3 0.6 0
27.6 0.6 0
27.9 0.6 0
28.2 0.6 0
28.5 0.6 0
28.8 0.6 0
29.1 0.6 0
29.4 0.6 0
29.7 0.6 0
30 0.6 0
0 0.7 0
0.3 0.7 0
0.6 0.7 0
0.9 0.7 0
1.2 0.7 0
1.5 0.7 0
1.8 0.7 0
2.1 0.7 0
2.4 0.7 0
2.7 0.7 0
3 0.7 0
3.3 0.7 0
3.6 0.7 0
3.9 0.7 0
4.2 0.7 0
4.5 0.7 0
4.8 0.7 0
5.1 0.7 0
5.4 0.7 0
5.7 0.7 0
6 0.7 0
6.3 0.7 0
6.6 0.7 0
6.9 0.7 0
7.2 0.7 0
7.5 0.7 0
7.8 0.7 0
8.1 0.7 0
8.4 0.7 0
8.7 0.7 0
9 0.7 0
9.3 0.7 0
9.6 0.7 0
9.9 0.7 0
10.2 0.7 0
10.5 0.7 0
10.8 0.7 0
11.1 0.7 0
11.4 0.7 0
11.7 0.7 0
12 0.7 0
12.3 0.7 0
12.6 0.7 0
12.9 0.7 0
13.2 0.7 0
13.5 0.7 0
13.8 0.7 0
14.1 0.7 0
14.4 0.7 0
14.7 0.7 0
15 0.7 0
15.3 0.7 0
15.6 0.7 0
15.9 0.7 0
16.2 0.7 0
16.5 0.7 0
16.8 0.7 0
17.1 0.7 0
17.4 0.7 0
17.7 0.7 0
18 0.7 0
18.3 0.7 0
18.6 0.7 0
18.9 0.7 0
19.2 0.7 0
19.5 0.7 0
19.8 0.7 0
20.1 0.7 0
20.4 0.7 0
20.7 0.7 0
21 0.7 0
21.3 0.7 0
21.6 0.7 0
21.9 0.7 0
22.2 0.7 0
22.5 0.7 0
22.8 0.7 0
23.1 0.7 0
23.4 0.7 0
23.7 0.7 0
24 0.7 0
24.3 0.7 0
24.6 0.7 0
24.9 0.7 0
25.2 0.7 0
25.5 0.7 0
25.8 0.7 0
26.1 0.7 0
26.4 0.7 0
26.7 0.7 0
27 0.7 0
27.3 0.7 0
27.6 0.7 0
27.9 0.7 0
28.2 0.7 0
28.5 0.7 0
28.8 0.7 0
29.1 0.7 0
29.4 0.7 0
29.7 0.7 0
30 0.7 0
0 0.8 0
0.3 0.8 0
0.6 0.8 0
0.9 0.8 0
1.2 0.8 0
1.5 0.8 0
1.8 0.8 0
2.1 0.8 0
2.4 0.8 0
2.7 0.8 0
3 0.8 0
3.3 0.8 0
3.6 0.8 0
3.9 0.8 0
4.2 0.8 0
4.5 0.8 0
4.8 0.8 0
5.1 0.8 0
5.4 0.8 0
5.7 0.8 0
6 0.8 0
6.3 0.8 0
6.6 0.8 0
6.9 0.8 0
7.2 0.8 0
7.5 0.8 0
7.8 0.8 0
8.1 0.8 0
8.4 0.8 0
8.7 0.8 0
9 0.8 0
9.3 0.8 0
9.6 0.8 0
9.9 0.8 0
10.2 0.8 0
10.5 0.8 0
10.8 0.8 0
11.1 0.8 0
11.4 0.8 0
11.7 0.8 0
12 0.8 0
12.3 0.8 0
12.6 0.8 0
12.9 0.8 0
13.2 0.8 0
13.5 0.8 0
13.8 0.8 0
14.1 0.8 0
14.4 0.8 0
14.7 0.8 0
15 0.8 0
15.3 0.8 0
15.6 0.8 0
15.9 0.8 0
16.2 0.8 0
16.5 0.8 0
16.8 0.8 0
17.1 0.8 0
17.4 0.8 0
17.7 0.8 0
18 0.8 0
18.3 0.8 0
18.6 0.8 0
18.9 0.8 0
19.2 0.8 0
19.5 0.8 0
19.8 0.8 0
20.1 0.8 0
20.4 0.8 0
20.7 0.8 0
21 0.8 0
21.3 0.8 0
21.6 0.8 0
21.9 0.8 0
22.2 0.8 0
22.5 0.8 0
22.8 0.8 0
23.1 0.8 0
23.4 0.8 0
23.7 0.8 0
24 0.8 0
24.3 0.8 0
24.6 0.8 0
24.9 0.8 0
25.2 0.8 0
25.5 0.8 0
25.8 0.8 0
26.1 0.8 0
26.4 0.8 0
26.7 0.8 0
27 0.8 0
27.3 0.8 0
27.6 0.8 0
27.9 0.8 0
28.2 0.8 0
28.5 0.8 0
28.8 0.8 0
29.1 0.8 0
29.4 0.8 0
29.7 0.8 0
30 0.8 0
0 0.9 0
0.3 0.9 0
0.6 0.9 0
0.9 0.9 0
1.2 0.9 0
1.5 0.9 0
1.8 0.9 0
2.1 0.9 0
2.4 0.9 0
2.7 0.9 0
3 0.9 0
3.3 0.9 0
3.6 0.9 0
3.9 0.9 0
4.2 0.9 0
4.5 0.9 0
4.8 0.9 0
5.1 0.9 0
5.4 0.9 0
5.7 0.9 0
6 0.9 0
6.3 0.9 0
6.6 0.9 0
6.9 0.9 0
7.2 0.9 0
7.5 0.9 0
7.8 0.9 0
8.1 0.9 0
8.4 0.9 0
8.7 0.9 0
9 0.9 0
9.3 0.9 0
9.6 0.9 0
9.9 0.9 0
10.2 0.9 0
10.5 0.9 0
10.8 0.9 0
11.1 0.9 0
11.4 0.9 0
11.7 0.9 0
12 0.9 0
12.3 0.9 0
12.6 0.9 0
12.9 0.9 0
13.2 0.9 0
13.5 0.9 0
13.8 0.9 0
14.1 0.9 0
14.4 0.9 0
14.7 0.9 0
15 0.9 0
15.3 0.9 0
15.6 0.9 0
15.9 0.9 0
16.2 0.9 0
16.5 0.9 0
16.8 0.9 0
17.1 0.9 0
17.4 0.9 0
17.7 0.9 0
18 0.9 0
18.3 0.9 0
18.6 0.9 0
18.9 0.9 0
19.2 0.9 0
19.5 0.9 0
19.8 0.9 0
20.1 0.9 0
20.4 0.9 0
20.7 0.9 0
21 0.9 0
21.3 0.9 0
21.6 0.9 0
21.9 0.9 0
22.2 0.9 0
22.5 0.9 0
22.8 0.9 0
23.1 0.9 0
23.4 0.9 0
23.7 0.9 0
24 0.9 0
24.3 0.9 0
24.6 0.9 0
24.9 0.9 0
25.2 0.9 0
25.5 0.9 0
25.8 0.9 0
26.1 0.9 0
26.4 0.9 0
26.7 0.9 0
27 0.9 0
27.3 0.9 0
27.6 0.9 0
27.9 0.9 0
28.2 0.9 0
28.5 0.9 0
28.8 0.9 0
29.1 0.9 0
29.4 0.9 0
29.7 0.9 0
30 0.9 0
0 1 0
0.3 1 0
0.6 1 0
0.9 1 0
1.2 1 0
1.5 1 0
1.8 1 0
2.1 1 0
2.4 1 0
2.7 1 0
3 1 0
3.3 1 0
3.6 1 0
3.9 1 0
4.2 1 0
4.5 1 0
4.8 1 0
5.1 1 0
5.4 1 0
5.7 1 0
6 1 0
6.3 1 0
6.6 1 0
6.9 1 0
7.2 1 0
7.5 1 0
7.8 1 0
8.1 1 0
8.4 1 0
8.7 1 0
9 1 0
9.3 1 0
9.6 1 0
9.9 1 0
10.2 1 0
10.5 1 0
10.8 1 0
11.1 1 0
11.4 1 0
11.7 1 0
12 1 0
12.3 1 0
12.6 1 0
12.9 1 0
13.2 1 0
13.5 1 0
13.8 1 0
14.1 1 0
14.4 1 0
14.7 1 0
15 1 0
15.3 1 0
15.6 1 0
15.9 1 0
16.2 1 0
16.5 1 0
16.8 1 0
17.1 1 0
17.4 1 0
17.7 1 0
18 1 0
18.3 1 0
18.6 1 0
18.9 1 0
19.2 1 0
19.5 1 0
19.8 1 0
20.1 1 0
20.4 1 0
20.7 1 0
21 1 0
21.3 1 0
21.6 1 0
21.9 1 0
22.2 1 0
22.5 1 0
22.8 1 0
23.1 1 0
23.4 1 0
23.7 1 0
24 1 0
24.3 1 0
24.6 1 0
24.9 1 0
25.2 1 0
25.5 1 0
25.8 1 0
26.1 1 0
26.4 1 0
26.7 1 0
27 1 0
27.3 1 0
27.6 1 0
27.9 1 0
28.2 1 0
28.5 1 0
28.8 1 0
29.1 1 0
29.4 1 0
29.7 1 0
30 1 0

POINT_DATA 1111

SCALARS u double
LOOKUP_TABLE default
-1
-0.892043
-0.781757
-0.688942
-0.614561
-0.556455
-0.511778
-0.47771
-0.45176
-0.431883
-0.416489
-0.404382
-0.394688
-0.386775
-0.380196
-0.374639
-0.369887
-0.365796
-0.362268
-0.359242
-0.356674
-0.354533
-0.352788
-0.351404
-0.35034
-0.34955
-0.348984
-0.348594
-0.348336
-0.348172
-0.348072
-0.348014
-0.347982
-0.347965
-0.347957
-0.347953
-0.347952
-0.347951
-0.347951
-0.347951
-0.347951
-0.347951
-0.347951
-0.347951
-0.347951
-0.347951
-0.347951
-0.347951
-0.347951
-0.347951
-0.347951
-0.347951
-0.347951
-0.347951
-0.347952
-0.347952
-0.347952
-0.347952
-0.347952
-0.347952
-0.347952
-0.347952
-0.347952
-0.347952
-0.347952
-0.347952
-0.347952
-0.347952
-0.347952
-0.347952
-0.347952
-0.347952
-0.347952
-0.347952
-0.347952
-0.347952
-0.347952
-0.347952
-0.347952
-0.347952
-0.347952
-0.347952
-0.347952
-0.347952
-0.347952
-0.347952
-0.347952
-0.347952
-0.347952
-0.347952
-0.347952
-0.347952
-0.347952
-0.347952
-0.347952
-0.347952
-0.347956
-0.347959
-0.347985
-0.347985
-1
1
0.892043
0.781757
0.688942
0.614561
0.556455
0.511778
0.47771
0.45176
0.431883
0.416489
0.404382
0.394688
0.386775
0.380196
0.374639
0.369887
0.365796
0.362268
0.359242
0.356674
0.354533
0.352788
0.351404
0.35034
0.34955
0.348984
0.348594
0.348336
0.348172
0.348072
0.348014
0.347982
0.347965
0.347957
0.347953
0.347952
0.347951
0.347951
0.347951
0.347951
0.347951
0.347951
0.347951
0.347951
0.347951
0.347951
0.347951
0.347951
0.347951
0.347951
0.347951
0.347951
0.347951
0.347952
0.347952
0.347952
0.347952
0.347952
0.347952
0.347952
0.347952
0.347952
0.347952
0.347952
0.347952
0.347952
0.347952
0.347952
0.347952
0.347952
0.347952
0.347952
0.347952
0.347952
0.347952
0.347952
0.347952
0.347952
0.347952
0.347952
0.347952
0.347952
0.347952
0.347952
0.347952
0.347952
0.347952
0.347952
0.347952
0.347952
0.347952
0.347952
0.347952
0.347952
0.347952
0.347956
0.347959
0.347985
0.347985
1
1
1.03004
1.03872
1.03588
1.02713
1.01543
1.00247
0.989261
0.976369
0.964124
0.95269
0.942133
0.932458
0.923634
0.915613
0.908341
0.901771
0.895866
0.890603
0.88597
0.881961
0.878564
0.875761
0.873514
0.87177
0.870463
0.86952
0.868865
0.868427
0.868148
0.867977
0.867877
0.867821
0.867791
0.867777
0.86777
0.867768
0.867767
0.867767
0.867767
0.867767
0.867767
0.867767
0.867767
0.867767
0.867768
0.867768
0.867768
0.867768
0.867768
0.867768
0.867768
0.867768
0.867768
0.867768
0.867768
0.867768
0.867768
0.867768
0.867768
0.867768
0.867768
0.867768
0.867768
0.867768
0.867768
0.867768
0.867768
0.867768
0.867768
0.867768
0.867768
0.867768
0.867768
0.867768
0.867768
0.867768
0.867768
0.867768
0.867768
0.867768
0.867768
0.867768
0.867768
0.867768
0.867768
0.867768
0.867768
0.867768
0.867768
0.867768
0.867768
0.867768
0.867768
0.867769
0.867768
0.867772
0.867767
0.867856
0.867856
1
1
1.03528
1.07404
1.1071
1.13349
1.15381
1.16904
1.18023
1.18831
1.19405
1.19805
1.20077
1.20255
1.20365
1.20425
1.2045
1.20449
1.20429
1.20396
1.20355
1.20309
1.20261
1.20213
1.20168
1.20128
1.20093
1.20064
1.20041
1.20023
1.2001
1.20001
1.19996
1.19992
1.1999
1.19988
1.19988
1.19987
1.19987
1.19987
1.19987
1.19987
1.19987
1.19987
1.19987
1.19987
1.19987
1.19987
1.19987
1.19987
1.19987
1.19987
1.19987
1.19987
1.19987
1.19987
1.19987
1.19987
1.19987
1.19987
1.19987
1.19987
1.19987
1.19987
1.19987
1.19987
1.19987
1.19987
1.19987
1.19987
1.19987
1.19987
1.19987
1.19987
1.19987
1.19987
1.19987
1.19987
1.19987
1.19987
1.19987
1.19987
1.19987
1.19987
1.19987
1.19987
1.19987
1.19987
1.19987
1.19987
1.19987
1.19987
1.19987
1.19987
1.19987
1.19987
1.19987
1.19987
1.19987
1.19989
1.19989
1
1
1.02921
1.07124
1.11265
1.14986
1.18204
1.20937
1.23242
1.25188
1.26841
1.28257
1.29484
1.30555
1.315
1.32339
1.33088
1.33758
1.34357
1.3489
1.35358
1.35765
1.3611
1.36397
1.36628
1.36809
1.36945
1.37045
1.37115
1.37162
1.37193
1.37212
1.37223
1.37229
1.37233
1.37234
1.37235
1.37235
1.37236
1.37236
1.37236
1.37236
1.37236
1.37236
1.37235
1.37235
1.37235
1.37236
1.37236
1.37236
1.37236
1.37236
1.37236
1.37236
1.37236
1.37236
1.37236
1.37236
1.37236
1.37236
1.37236
1.37236
1.37236
1.37236
1.37236
1.37236
1.37236
1.37236
1.37236
1.37236
1.37236
1.37236
1.37236
1.37236
1.37236
1.37236
1.37236
1.37236
1.37236
1.37236
1.37236
1.37236
1.37236
1.37236
1.37236
1.37236
1.37236
1.37236
1.37236
1.37236
1.37236
1.37236
1.37236
1.37236
1.37236
1.37236
1.37236
1.37235
1.37235
1.37228
1.37228
1
1
1.02685
1.06849
1.11086
1.14991
1.18453
1.21467
1.24075
1.26336
1.28307
1.3004
1.31576
1.32951
1.34188
1.35309
1.36328
1.37255
1.38096
1.38854
1.39531
1.40126
1.40639
1.4107
1.41424
1.41705
1.41921
1.42082
1.42198
1.42278
1.42331
1.42365
1.42386
1.42398
1.42405
1.42409
1.4241
1.42411
1.42412
1.42412
1.42412
1.42412
1.42412
1.42412
1.42412
1.42412
1.42412
1.42412
1.42412
1.42412
1.42412
1.42412
1.42412
1.42412
1.42412
1.42412
1.42412
1.42412
1.42412
1.42412
1.42412
1.42412
1.42412
1.42412
1.42412
1.42412
1.42412
1.42412
1.42412
1.42412
1.42412
1.42412
1.42412
1.42412
1.42412
1.42412
1.42412
1.42412
1.42412
1.42412
1.42412
1.42412
1.42412
1.42412
1.42412
1.42412
1.42412
1.42412
1.42412
1.42412
1.42412
1.42412
1.42412
1.42412
1.42412
1.42412
1.42412
1.42411
1.42412
1.424
1.424
1
1
1.02921
1.07124
1.11265
1.14986
1.18204
1.20937
1.23242
1.25188
1.26841
1.28257
1.29484
1.30555
1.315
1.32339
1.33088
1.33758
1.34357
1.3489
1.35358
1.35765
1.3611
1.36397
1.36628
1.36809
1.36945
1.37045
1.37115
1.37162
1.37193
1.37212
1.37223
1.37229
1.37233
1.37234
1.37235
1.37235
1.37236
1.37236
1.37236
1.37236
1.37236
1.37235
1.37235
1.37235
1.37235
1.37235
1.37235
1.37235
1.37235
1.37235
1.37235
1.37236
1.37236
1.37236
1.37236
1.37236
1.37236
1.37236
1.37236
1.37236
1.37236
1.37236
1.37236
1.37236
1.37236
1.37236
1.37236
1.37236
1.37236
1.37236
1.37236
1.37236
1.37236
1.37236
1.37236
1.37236
1.37236
1.37236
1.37236
1.37236
1.37236
1.37236
1.37236
1.37236
1.37236
1.37236
1.37236
1.37236
1.37236
1.37236
1.37236
1.37236
1.37236
1.37235
1.37236
1.37235
1.37235
1.37228
1.37228
1
1
1.03528
1.07404
1.1071
1.13349
1.15381
1.16904
1.18023
1.18832
1.19405
1.19805
1.20077
1.20255
1.20365
1.20425
1.2045
1.20449
1.20429
1.20396
1.20355
1.20309
1.20261
1.20213
1.20169
1.20128
1.20093
1.20064
1.20041
1.20023
1.2001
1.20001
1.19996
1.19992
1.1999
1.19988
1.19988
1.19987
1.19987
1.19987
1.19987
1.19987
1.19987
1.19987
1.19987
1.19987
1.19987
1.19987
1.19987
1.19987
1.19987
1.19987
1.19987
1.19987
1.19987
1.19987
1.19987
1.19987
1.19987
1.19987
1.19987
1.19987
1.19987
1.19987
1.19987
1.19987
1.19987
1.19987
1.19987
1.19987
1.19987
1.19987
1.19987
1.19987
1.19987
1.19987
1.19987
1.19987
1.19987
1.19987
1.19987
1.19987
1.19987
1.19987
1.19987
1.19987
1.19987
1.19987
1.19987
1.19987
1.19987
1.19987
1.19987
1.19987
1.19987
1.19987
1.19987
1.19987
1.19987
1.19989
1.19989
1
1
1.03004
1.03872
1.03588
1.02713
1.01543
1.00247
0.989261
0.97637
0.964125
0.952691
0.942134
0.932459
0.923635
0.915614
0.908342
0.901771
0.895866
0.890603
0.88597
0.881961
0.878565
0.875761
0.873514
0.87177
0.870463
0.86952
0.868865
0.868428
0.868148
0.867977
0.867877
0.867821
0.867792
0.867777
0.86777
0.867768
0.867767
0.867767
0.867767
0.867767
0.867767
0.867767
0.867767
0.867768
0.867768
0.867768
0.867768
0.867768
0.867768
0.867768
0.867768
0.867768
0.867768
0.867768
0.867768
0.867768
0.867768
0.867768
0.867768
0.867768
0.867768
0.867768
0.867768
0.867768
0.867768
0.867768
0.867768
0.867768
0.867768
0.867768
0.867768
0.867768
0.867768
0.867768
0.867768
0.867768
0.867768
0.867768
0.867768
0.867768
0.867768
0.867768
0.867768
0.867768
0.867768
0.867768
0.867768
0.867768
0.867768
0.867768
0.867768
0.867768
0.867768
0.867768
0.867768
0.867772
0.867766
0.867855
0.867855
1
1
0.892043
0.781757
0.688942
0.614562
0.556455
0.511779
0.477711
0.45176
0.431883
0.416489
0.404383
0.394688
0.386775
0.380197
0.37464
0.369888
0.365796
0.362269
0.359242
0.356674
0.354533
0.352788
0.351404
0.35034
0.34955
0.348984
0.348595
0.348336
0.348172
0.348073
0.348015
0.347982
0.347966
0.347957
0.347953
0.347952
0.347951
0.347951
0.347951
0.347951
0.347951
0.347952
0.347952
0.347952
0.347952
0.347952
0.347952
0.347952
0.347952
0.347952
0.347952
0.347952
0.347952
0.347952
0.347952
0.347952
0.347952
0.347952
0.347952
0.347952
0.347952
0.347952
0.347952
0.347952
0.347952
0.347952
0.347952
0.347952
0.347952
0.347952
0.347952
0.347952
0.347952
0.347952
0.347952
0.347952
0.347952
0.347952
0.347952
0.347952
0.347952
0.347952
0.347952
0.347952
0.347952
0.347952
0.347952
0.347952
0.347952
0.347952
0.347952
0.347952
0.347952
0.347952
0.347952
0.347956
0.347959
0.347985
0.347985
1
-1
-0.892043
-0.781757
-0.688942
-0.614562
-0.556455
-0.511779
-0.477711
-0.45176
-0.431883
-0.416489
-0.404383
-0.394688
-0.386775
-0.380197
-0.37464
-0.369888
-0.365796
-0.362269
-0.359242
-0.356674
-0.354533
-0.352788
-0.351404
-0.35034
-0.34955
-0.348984
-0.348595
-0.348336
-0.348172
-0.348073
-0.348015
-0.347982
-0.347966
-0.347957
-0.347953
-0.347952
-0.347951
-0.347951
-0.347951
-0.347951
-0.347951
-0.347952
-0.347952
-0.347952
-0.347952
-0.347952
-0.347952
-0.347952
-0.347952
-0.347952
-0.347952
-0.347952
-0.347952
-0.347952
-0.347952
-0.347952
-0.347952
-0.347952
-0.347952
-0.347952
-0.347952
-0.347952
-0.347952
-0.347952
-0.347952
-0.347952
-0.347952
-0.347952
-0.347952
-0.347952
-0.347952
-0.347952
-0.347952
-0.347952
-0.347952
-0.347952
-0.347952
-0.347952
-0.347952
-0.347952
-0.347952
-0.347952
-0.347952
-0.347952
-0.347952
-0.347952
-0.347952
-0.347952
-0.347952
-0.347952
-0.347952
-0.347952
-0.347952
-0.347952
-0.347952
-0.347956
-0.347959
-0.347985
-0.347985
-1
