# vtk DataFile Version 2.0
FlowField
ASCII
DATASET STRUCTURED_GRID
DIMENSIONS 102 1 12 
POINTS 1224 double
0 0 0
0.4 0 0
0.8 0 0
1.2 0 0
1.6 0 0
2 0 0
2.4 0 0
2.8 0 0
3.2 0 0
3.6 0 0
4 0 0
4.4 0 0
4.8 0 0
5.2 0 0
5.6 0 0
6 0 0
6.4 0 0
6.8 0 0
7.2 0 0
7.6 0 0
8 0 0
8.4 0 0
8.8 0 0
9.2 0 0
9.6 0 0
10 0 0
10.4 0 0
10.8 0 0
11.2 0 0
11.6 0 0
12 0 0
12.4 0 0
12.8 0 0
13.2 0 0
13.6 0 0
14 0 0
14.4 0 0
14.8 0 0
15.2 0 0
15.6 0 0
16 0 0
16.4 0 0
16.8 0 0
17.2 0 0
17.6 0 0
18 0 0
18.4 0 0
18.8 0 0
19.2 0 0
19.6 0 0
20 0 0
20.4 0 0
20.8 0 0
21.2 0 0
21.6 0 0
22 0 0
22.4 0 0
22.8 0 0
23.2 0 0
23.6 0 0
24 0 0
24.4 0 0
24.8 0 0
25.2 0 0
25.6 0 0
26 0 0
26.4 0 0
26.8 0 0
27.2 0 0
27.6 0 0
28 0 0
28.4 0 0
28.8 0 0
29.2 0 0
29.6 0 0
30 0 0
30.4 0 0
30.8 0 0
31.2 0 0
31.6 0 0
32 0 0
32.4 0 0
32.8 0 0
33.2 0 0
33.6 0 0
34 0 0
34.4 0 0
34.8 0 0
35.2 0 0
35.6 0 0
36 0 0
36.4 0 0
36.8 0 0
37.2 0 0
37.6 0 0
38 0 0
38.4 0 0
38.8 0 0
39.2 0 0
39.6 0 0
40 0 0
40.4 0 0
0 0.1 0
0.4 0.1 0
0.8 0.1 0
1.2 0.1 0
1.6 0.1 0
2 0.1 0
2.4 0.1 0
2.8 0.1 0
3.2 0.1 0
3.6 0.1 0
4 0.1 0
4.4 0.1 0
4.8 0.1 0
5.2 0.1 0
5.6 0.1 0
6 0.1 0
6.4 0.1 0
6.8 0.1 0
7.2 0.1 0
7.6 0.1 0
8 0.1 0
8.4 0.1 0
8.8 0.1 0
9.2 0.1 0
9.6 0.1 0
10 0.1 0
10.4 0.1 0
10.8 0.1 0
11.2 0.1 0
11.6 0.1 0
12 0.1 0
12.4 0.1 0
12.8 0.1 0
13.2 0.1 0
13.6 0.1 0
14 0.1 0
14.4 0.1 0
14.8 0.1 0
15.2 0.1 0
15.6 0.1 0
16 0.1 0
16.4 0.1 0
16.8 0.1 0
17.2 0.1 0
17.6 0.1 0
18 0.1 0
18.4 0.1 0
18.8 0.1 0
19.2 0.1 0
19.6 0.1 0
20 0.1 0
20.4 0.1 0
20.8 0.1 0
21.2 0.1 0
21.6 0.1 0
22 0.1 0
22.4 0.1 0
22.8 0.1 0
23.2 0.1 0
23.6 0.1 0
24 0.1 0
24.4 0.1 0
24.8 0.1 0
25.2 0.1 0
25.6 0.1 0
26 0.1 0
26.4 0.1 0
26.8 0.1 0
27.2 0.1 0
27.6 0.1 0
28 0.1 0
28.4 0.1 0
28.8 0.1 0
29.2 0.1 0
29.6 0.1 0
30 0.1 0
30.4 0.1 0
30.8 0.1 0
31.2 0.1 0
31.6 0.1 0
32 0.1 0
32.4 0.1 0
32.8 0.1 0
33.2 0.1 0
33.6 0.1 0
34 0.1 0
34.4 0.1 0
34.8 0.1 0
35.2 0.1 0
35.6 0.1 0
36 0.1 0
36.4 0.1 0
36.8 0.1 0
37.2 0.1 0
37.6 0.1 0
38 0.1 0
38.4 0.1 0
38.8 0.1 0
39.2 0.1 0
39.6 0.1 0
40 0.1 0
40.4 0.1 0
0 0.2 0
0.4 0.2 0
0.8 0.2 0
1.2 0.2 0
1.6 0.2 0
2 0.2 0
2.4 0.2 0
2.8 0.2 0
3.2 0.2 0
3.6 0.2 0
4 0.2 0
4.4 0.2 0
4.8 0.2 0
5.2 0.2 0
5.6 0.2 0
6 0.2 0
6.4 0.2 0
6.8 0.2 0
7.2 0.2 0
7.6 0.2 0
8 0.2 0
8.4 0.2 0
8.8 0.2 0
9.2 0.2 0
9.6 0.2 0
10 0.2 0
10.4 0.2 0
10.8 0.2 0
11.2 0.2 0
11.6 0.2 0
12 0.2 0
12.4 0.2 0
12.8 0.2 0
13.2 0.2 0
13.6 0.2 0
14 0.2 0
14.4 0.2 0
14.8 0.2 0
15.2 0.2 0
15.6 0.2 0
16 0.2 0
16.4 0.2 0
16.8 0.2 0
17.2 0.2 0
17.6 0.2 0
18 0.2 0
18.4 0.2 0
18.8 0.2 0
19.2 0.2 0
19.6 0.2 0
20 0.2 0
20.4 0.2 0
20.8 0.2 0
21.2 0.2 0
21.6 0.2 0
22 0.2 0
22.4 0.2 0
22.8 0.2 0
23.2 0.2 0
23.6 0.2 0
24 0.2 0
24.4 0.2 0
24.8 0.2 0
25.2 0.2 0
25.6 0.2 0
26 0.2 0
26.4 0.2 0
26.8 0.2 0
27.2 0.2 0
27.6 0.2 0
28 0.2 0
28.4 0.2 0
28.8 0.2 0
29.2 0.2 0
29.6 0.2 0
30 0.2 0
30.4 0.2 0
30.8 0.2 0
31.2 0.2 0
31.6 0.2 0
32 0.2 0
32.4 0.2 0
32.8 0.2 0
33.2 0.2 0
33.6 0.2 0
34 0.2 0
34.4 0.2 0
34.8 0.2 0
35.2 0.2 0
35.6 0.2 0
36 0.2 0
36.4 0.2 0
36.8 0.2 0
37.2 0.2 0
37.6 0.2 0
38 0.2 0
38.4 0.2 0
38.8 0.2 0
39.2 0.2 0
39.6 0.2 0
40 0.2 0
40.4 0.2 0
0 0.3 0
0.4 0.3 0
0.8 0.3 0
1.2 0.3 0
1.6 0.3 0
2 0.3 0
2.4 0.3 0
2.8 0.3 0
3.2 0.3 0
3.6 0.3 0
4 0.3 0
4.4 0.3 0
4.8 0.3 0
5.2 0.3 0
5.6 0.3 0
6 0.3 0
6.4 0.3 0
6.8 0.3 0
7.2 0.3 0
7.6 0.3 0
8 0.3 0
8.4 0.3 0
8.8 0.3 0
9.2 0.3 0
9.6 0.3 0
10 0.3 0
10.4 0.3 0
10.8 0.3 0
11.2 0.3 0
11.6 0.3 0
12 0.3 0
12.4 0.3 0
12.8 0.3 0
13.2 0.3 0
13.6 0.3 0
14 0.3 0
14.4 0.3 0
14.8 0.3 0
15.2 0.3 0
15.6 0.3 0
16 0.3 0
16.4 0.3 0
16.8 0.3 0
17.2 0.3 0
17.6 0.3 0
18 0.3 0
18.4 0.3 0
18.8 0.3 0
19.2 0.3 0
19.6 0.3 0
20 0.3 0
20.4 0.3 0
20.8 0.3 0
21.2 0.3 0
21.6 0.3 0
22 0.3 0
22.4 0.3 0
22.8 0.3 0
23.2 0.3 0
23.6 0.3 0
24 0.3 0
24.4 0.3 0
24.8 0.3 0
25.2 0.3 0
25.6 0.3 0
26 0.3 0
26.4 0.3 0
26.8 0.3 0
27.2 0.3 0
27.6 0.3 0
28 0.3 0
28.4 0.3 0
28.8 0.3 0
29.2 0.3 0
29.6 0.3 0
30 0.3 0
30.4 0.3 0
30.8 0.3 0
31.2 0.3 0
31.6 0.3 0
32 0.3 0
32.4 0.3 0
32.8 0.3 0
33.2 0.3 0
33.6 0.3 0
34 0.3 0
34.4 0.3 0
34.8 0.3 0
35.2 0.3 0
35.6 0.3 0
36 0.3 0
36.4 0.3 0
36.8 0.3 0
37.2 0.3 0
37.6 0.3 0
38 0.3 0
38.4 0.3 0
38.8 0.3 0
39.2 0.3 0
39.6 0.3 0
40 0.3 0
40.4 0.3 0
0 0.4 0
0.4 0.4 0
0.8 0.4 0
1.2 0.4 0
1.6 0.4 0
2 0.4 0
2.4 0.4 0
2.8 0.4 0
3.2 0.4 0
3.6 0.4 0
4 0.4 0
4.4 0.4 0
4.8 0.4 0
5.2 0.4 0
5.6 0.4 0
6 0.4 0
6.4 0.4 0
6.8 0.4 0
7.2 0.4 0
7.6 0.4 0
8 0.4 0
8.4 0.4 0
8.8 0.4 0
9.2 0.4 0
9.6 0.4 0
10 0.4 0
10.4 0.4 0
10.8 0.4 0
11.2 0.4 0
11.6 0.4 0
12 0.4 0
12.4 0.4 0
12.8 0.4 0
13.2 0.4 0
13.6 0.4 0
14 0.4 0
14.4 0.4 0
14.8 0.4 0
15.2 0.4 0
15.6 0.4 0
16 0.4 0
16.4 0.4 0
16.8 0.4 0
17.2 0.4 0
17.6 0.4 0
18 0.4 0
18.4 0.4 0
18.8 0.4 0
19.2 0.4 0
19.6 0.4 0
20 0.4 0
20.4 0.4 0
20.8 0.4 0
21.2 0.4 0
21.6 0.4 0
22 0.4 0
22.4 0.4 0
22.8 0.4 0
23.2 0.4 0
23.6 0.4 0
24 0.4 0
24.4 0.4 0
24.8 0.4 0
25.2 0.4 0
25.6 0.4 0
26 0.4 0
26.4 0.4 0
26.8 0.4 0
27.2 0.4 0
27.6 0.4 0
28 0.4 0
28.4 0.4 0
28.8 0.4 0
29.2 0.4 0
29.6 0.4 0
30 0.4 0
30.4 0.4 0
30.8 0.4 0
31.2 0.4 0
31.6 0.4 0
32 0.4 0
32.4 0.4 0
32.8 0.4 0
33.2 0.4 0
33.6 0.4 0
34 0.4 0
34.4 0.4 0
34.8 0.4 0
35.2 0.4 0
35.6 0.4 0
36 0.4 0
36.4 0.4 0
36.8 0.4 0
37.2 0.4 0
37.6 0.4 0
38 0.4 0
38.4 0.4 0
38.8 0.4 0
39.2 0.4 0
39.6 0.4 0
40 0.4 0
40.4 0.4 0
0 0.5 0
0.4 0.5 0
0.8 0.5 0
1.2 0.5 0
1.6 0.5 0
2 0.5 0
2.4 0.5 0
2.8 0.5 0
3.2 0.5 0
3.6 0.5 0
4 0.5 0
4.4 0.5 0
4.8 0.5 0
5.2 0.5 0
5.6 0.5 0
6 0.5 0
6.4 0.5 0
6.8 0.5 0
7.2 0.5 0
7.6 0.5 0
8 0.5 0
8.4 0.5 0
8.8 0.5 0
9.2 0.5 0
9.6 0.5 0
10 0.5 0
10.4 0.5 0
10.8 0.5 0
11.2 0.5 0
11.6 0.5 0
12 0.5 0
12.4 0.5 0
12.8 0.5 0
13.2 0.5 0
13.6 0.5 0
14 0.5 0
14.4 0.5 0
14.8 0.5 0
15.2 0.5 0
15.6 0.5 0
16 0.5 0
16.4 0.5 0
16.8 0.5 0
17.2 0.5 0
17.6 0.5 0
18 0.5 0
18.4 0.5 0
18.8 0.5 0
19.2 0.5 0
19.6 0.5 0
20 0.5 0
20.4 0.5 0
20.8 0.5 0
21.2 0.5 0
21.6 0.5 0
22 0.5 0
22.4 0.5 0
22.8 0.5 0
23.2 0.5 0
23.6 0.5 0
24 0.5 0
24.4 0.5 0
24.8 0.5 0
25.2 0.5 0
25.6 0.5 0
26 0.5 0
26.4 0.5 0
26.8 0.5 0
27.2 0.5 0
27.6 0.5 0
28 0.5 0
28.4 0.5 0
28.8 0.5 0
29.2 0.5 0
29.6 0.5 0
30 0.5 0
30.4 0.5 0
30.8 0.5 0
31.2 0.5 0
31.6 0.5 0
32 0.5 0
32.4 0.5 0
32.8 0.5 0
33.2 0.5 0
33.6 0.5 0
34 0.5 0
34.4 0.5 0
34.8 0.5 0
35.2 0.5 0
35.6 0.5 0
36 0.5 0
36.4 0.5 0
36.8 0.5 0
37.2 0.5 0
37.6 0.5 0
38 0.5 0
38.4 0.5 0
38.8 0.5 0
39.2 0.5 0
39.6 0.5 0
40 0.5 0
40.4 0.5 0
0 0.6 0
0.4 0.6 0
0.8 0.6 0
1.2 0.6 0
1.6 0.6 0
2 0.6 0
2.4 0.6 0
2.8 0.6 0
3.2 0.6 0
3.6 0.6 0
4 0.6 0
4.4 0.6 0
4.8 0.6 0
5.2 0.6 0
5.6 0.6 0
6 0.6 0
6.4 0.6 0
6.8 0.6 0
7.2 0.6 0
7.6 0.6 0
8 0.6 0
8.4 0.6 0
8.8 0.6 0
9.2 0.6 0
9.6 0.6 0
10 0.6 0
10.4 0.6 0
10.8 0.6 0
11.2 0.6 0
11.6 0.6 0
12 0.6 0
12.4 0.6 0
12.8 0.6 0
13.2 0.6 0
13.6 0.6 0
14 0.6 0
14.4 0.6 0
14.8 0.6 0
15.2 0.6 0
15.6 0.6 0
16 0.6 0
16.4 0.6 0
16.8 0.6 0
17.2 0.6 0
17.6 0.6 0
18 0.6 0
18.4 0.6 0
18.8 0.6 0
19.2 0.6 0
19.6 0.6 0
20 0.6 0
20.4 0.6 0
20.8 0.6 0
21.2 0.6 0
21.6 0.6 0
22 0.6 0
22.4 0.6 0
22.8 0.6 0
23.2 0.6 0
23.6 0.6 0
24 0.6 0
24.4 0.6 0
24.8 0.6 0
25.2 0.6 0
25.6 0.6 0
26 0.6 0
26.4 0.6 0
26.8 0.6 0
27.2 0.6 0
27.6 0.6 0
28 0.6 0
28.4 0.6 0
28.8 0.6 0
29.2 0.6 0
29.6 0.6 0
30 0.6 0
30.4 0.6 0
30.8 0.6 0
31.2 0.6 0
31.6 0.6 0
32 0.6 0
32.4 0.6 0
32.8 0.6 0
33.2 0.6 0
33.6 0.6 0
34 0.6 0
34.4 0.6 0
34.8 0.6 0
35.2 0.6 0
35.6 0.6 0
36 0.6 0
36.4 0.6 0
36.8 0.6 0
37.2 0.6 0
37.6 0.6 0
38 0.6 0
38.4 0.6 0
38.8 0.6 0
39.2 0.6 0
39.6 0.6 0
40 0.6 0
40.4 0.6 0
0 0.7 0
0.4 0.7 0
0.8 0.7 0
1.2 0.7 0
1.6 0.7 0
2 0.7 0
2.4 0.7 0
2.8 0.7 0
3.2 0.7 0
3.6 0.7 0
4 0.7 0
4.4 0.7 0
4.8 0.7 0
5.2 0.7 0
5.6 0.7 0
6 0.7 0
6.4 0.7 0
6.8 0.7 0
7.2 0.7 0
7.6 0.7 0
8 0.7 0
8.4 0.7 0
8.8 0.7 0
9.2 0.7 0
9.6 0.7 0
10 0.7 0
10.4 0.7 0
10.8 0.7 0
11.2 0.7 0
11.6 0.7 0
12 0.7 0
12.4 0.7 0
12.8 0.7 0
13.2 0.7 0
13.6 0.7 0
14 0.7 0
14.4 0.7 0
14.8 0.7 0
15.2 0.7 0
15.6 0.7 0
16 0.7 0
16.4 0.7 0
16.8 0.7 0
17.2 0.7 0
17.6 0.7 0
18 0.7 0
18.4 0.7 0
18.8 0.7 0
19.2 0.7 0
19.6 0.7 0
20 0.7 0
20.4 0.7 0
20.8 0.7 0
21.2 0.7 0
21.6 0.7 0
22 0.7 0
22.4 0.7 0
22.8 0.7 0
23.2 0.7 0
23.6 0.7 0
24 0.7 0
24.4 0.7 0
24.8 0.7 0
25.2 0.7 0
25.6 0.7 0
26 0.7 0
26.4 0.7 0
26.8 0.7 0
27.2 0.7 0
27.6 0.7 0
28 0.7 0
28.4 0.7 0
28.8 0.7 0
29.2 0.7 0
29.6 0.7 0
30 0.7 0
30.4 0.7 0
30.8 0.7 0
31.2 0.7 0
31.6 0.7 0
32 0.7 0
32.4 0.7 0
32.8 0.7 0
33.2 0.7 0
33.6 0.7 0
34 0.7 0
34.4 0.7 0
34.8 0.7 0
35.2 0.7 0
35.6 0.7 0
36 0.7 0
36.4 0.7 0
36.8 0.7 0
37.2 0.7 0
37.6 0.7 0
38 0.7 0
38.4 0.7 0
38.8 0.7 0
39.2 0.7 0
39.6 0.7 0
40 0.7 0
40.4 0.7 0
0 0.8 0
0.4 0.8 0
0.8 0.8 0
1.2 0.8 0
1.6 0.8 0
2 0.8 0
2.4 0.8 0
2.8 0.8 0
3.2 0.8 0
3.6 0.8 0
4 0.8 0
4.4 0.8 0
4.8 0.8 0
5.2 0.8 0
5.6 0.8 0
6 0.8 0
6.4 0.8 0
6.8 0.8 0
7.2 0.8 0
7.6 0.8 0
8 0.8 0
8.4 0.8 0
8.8 0.8 0
9.2 0.8 0
9.6 0.8 0
10 0.8 0
10.4 0.8 0
10.8 0.8 0
11.2 0.8 0
11.6 0.8 0
12 0.8 0
12.4 0.8 0
12.8 0.8 0
13.2 0.8 0
13.6 0.8 0
14 0.8 0
14.4 0.8 0
14.8 0.8 0
15.2 0.8 0
15.6 0.8 0
16 0.8 0
16.4 0.8 0
16.8 0.8 0
17.2 0.8 0
17.6 0.8 0
18 0.8 0
18.4 0.8 0
18.8 0.8 0
19.2 0.8 0
19.6 0.8 0
20 0.8 0
20.4 0.8 0
20.8 0.8 0
21.2 0.8 0
21.6 0.8 0
22 0.8 0
22.4 0.8 0
22.8 0.8 0
23.2 0.8 0
23.6 0.8 0
24 0.8 0
24.4 0.8 0
24.8 0.8 0
25.2 0.8 0
25.6 0.8 0
26 0.8 0
26.4 0.8 0
26.8 0.8 0
27.2 0.8 0
27.6 0.8 0
28 0.8 0
28.4 0.8 0
28.8 0.8 0
29.2 0.8 0
29.6 0.8 0
30 0.8 0
30.4 0.8 0
30.8 0.8 0
31.2 0.8 0
31.6 0.8 0
32 0.8 0
32.4 0.8 0
32.8 0.8 0
33.2 0.8 0
33.6 0.8 0
34 0.8 0
34.4 0.8 0
34.8 0.8 0
35.2 0.8 0
35.6 0.8 0
36 0.8 0
36.4 0.8 0
36.8 0.8 0
37.2 0.8 0
37.6 0.8 0
38 0.8 0
38.4 0.8 0
38.8 0.8 0
39.2 0.8 0
39.6 0.8 0
40 0.8 0
40.4 0.8 0
0 0.9 0
0.4 0.9 0
0.8 0.9 0
1.2 0.9 0
1.6 0.9 0
2 0.9 0
2.4 0.9 0
2.8 0.9 0
3.2 0.9 0
3.6 0.9 0
4 0.9 0
4.4 0.9 0
4.8 0.9 0
5.2 0.9 0
5.6 0.9 0
6 0.9 0
6.4 0.9 0
6.8 0.9 0
7.2 0.9 0
7.6 0.9 0
8 0.9 0
8.4 0.9 0
8.8 0.9 0
9.2 0.9 0
9.6 0.9 0
10 0.9 0
10.4 0.9 0
10.8 0.9 0
11.2 0.9 0
11.6 0.9 0
12 0.9 0
12.4 0.9 0
12.8 0.9 0
13.2 0.9 0
13.6 0.9 0
14 0.9 0
14.4 0.9 0
14.8 0.9 0
15.2 0.9 0
15.6 0.9 0
16 0.9 0
16.4 0.9 0
16.8 0.9 0
17.2 0.9 0
17.6 0.9 0
18 0.9 0
18.4 0.9 0
18.8 0.9 0
19.2 0.9 0
19.6 0.9 0
20 0.9 0
20.4 0.9 0
20.8 0.9 0
21.2 0.9 0
21.6 0.9 0
22 0.9 0
22.4 0.9 0
22.8 0.9 0
23.2 0.9 0
23.6 0.9 0
24 0.9 0
24.4 0.9 0
24.8 0.9 0
25.2 0.9 0
25.6 0.9 0
26 0.9 0
26.4 0.9 0
26.8 0.9 0
27.2 0.9 0
27.6 0.9 0
28 0.9 0
28.4 0.9 0
28.8 0.9 0
29.2 0.9 0
29.6 0.9 0
30 0.9 0
30.4 0.9 0
30.8 0.9 0
31.2 0.9 0
31.6 0.9 0
32 0.9 0
32.4 0.9 0
32.8 0.9 0
33.2 0.9 0
33.6 0.9 0
34 0.9 0
34.4 0.9 0
34.8 0.9 0
35.2 0.9 0
35.6 0.9 0
36 0.9 0
36.4 0.9 0
36.8 0.9 0
37.2 0.9 0
37.6 0.9 0
38 0.9 0
38.4 0.9 0
38.8 0.9 0
39.2 0.9 0
39.6 0.9 0
40 0.9 0
40.4 0.9 0
0 1 0
0.4 1 0
0.8 1 0
1.2 1 0
1.6 1 0
2 1 0
2.4 1 0
2.8 1 0
3.2 1 0
3.6 1 0
4 1 0
4.4 1 0
4.8 1 0
5.2 1 0
5.6 1 0
6 1 0
6.4 1 0
6.8 1 0
7.2 1 0
7.6 1 0
8 1 0
8.4 1 0
8.8 1 0
9.2 1 0
9.6 1 0
10 1 0
10.4 1 0
10.8 1 0
11.2 1 0
11.6 1 0
12 1 0
12.4 1 0
12.8 1 0
13.2 1 0
13.6 1 0
14 1 0
14.4 1 0
14.8 1 0
15.2 1 0
15.6 1 0
16 1 0
16.4 1 0
16.8 1 0
17.2 1 0
17.6 1 0
18 1 0
18.4 1 0
18.8 1 0
19.2 1 0
19.6 1 0
20 1 0
20.4 1 0
20.8 1 0
21.2 1 0
21.6 1 0
22 1 0
22.4 1 0
22.8 1 0
23.2 1 0
23.6 1 0
24 1 0
24.4 1 0
24.8 1 0
25.2 1 0
25.6 1 0
26 1 0
26.4 1 0
26.8 1 0
27.2 1 0
27.6 1 0
28 1 0
28.4 1 0
28.8 1 0
29.2 1 0
29.6 1 0
30 1 0
30.4 1 0
30.8 1 0
31.2 1 0
31.6 1 0
32 1 0
32.4 1 0
32.8 1 0
33.2 1 0
33.6 1 0
34 1 0
34.4 1 0
34.8 1 0
35.2 1 0
35.6 1 0
36 1 0
36.4 1 0
36.8 1 0
37.2 1 0
37.6 1 0
38 1 0
38.4 1 0
38.8 1 0
39.2 1 0
39.6 1 0
40 1 0
40.4 1 0
0 1.1 0
0.4 1.1 0
0.8 1.1 0
1.2 1.1 0
1.6 1.1 0
2 1.1 0
2.4 1.1 0
2.8 1.1 0
3.2 1.1 0
3.6 1.1 0
4 1.1 0
4.4 1.1 0
4.8 1.1 0
5.2 1.1 0
5.6 1.1 0
6 1.1 0
6.4 1.1 0
6.8 1.1 0
7.2 1.1 0
7.6 1.1 0
8 1.1 0
8.4 1.1 0
8.8 1.1 0
9.2 1.1 0
9.6 1.1 0
10 1.1 0
10.4 1.1 0
10.8 1.1 0
11.2 1.1 0
11.6 1.1 0
12 1.1 0
12.4 1.1 0
12.8 1.1 0
13.2 1.1 0
13.6 1.1 0
14 1.1 0
14.4 1.1 0
14.8 1.1 0
15.2 1.1 0
15.6 1.1 0
16 1.1 0
16.4 1.1 0
16.8 1.1 0
17.2 1.1 0
17.6 1.1 0
18 1.1 0
18.4 1.1 0
18.8 1.1 0
19.2 1.1 0
19.6 1.1 0
20 1.1 0
20.4 1.1 0
20.8 1.1 0
21.2 1.1 0
21.6 1.1 0
22 1.1 0
22.4 1.1 0
22.8 1.1 0
23.2 1.1 0
23.6 1.1 0
24 1.1 0
24.4 1.1 0
24.8 1.1 0
25.2 1.1 0
25.6 1.1 0
26 1.1 0
26.4 1.1 0
26.8 1.1 0
27.2 1.1 0
27.6 1.1 0
28 1.1 0
28.4 1.1 0
28.8 1.1 0
29.2 1.1 0
29.6 1.1 0
30 1.1 0
30.4 1.1 0
30.8 1.1 0
31.2 1.1 0
31.6 1.1 0
32 1.1 0
32.4 1.1 0
32.8 1.1 0
33.2 1.1 0
33.6 1.1 0
34 1.1 0
34.4 1.1 0
34.8 1.1 0
35.2 1.1 0
35.6 1.1 0
36 1.1 0
36.4 1.1 0
36.8 1.1 0
37.2 1.1 0
37.6 1.1 0
38 1.1 0
38.4 1.1 0
38.8 1.1 0
39.2 1.1 0
39.6 1.1 0
40 1.1 0
40.4 1.1 0

POINT_DATA 1224

SCALARS phi double
LOOKUP_TABLE default
0.884981
1.11502
1.09293
0.735425
0.356028
0.135974
0.0441536
0.0127453
0.00334314
0.00080491
0.000178773
3.67474e-05
7.01002e-06
1.24432e-06
2.06068e-07
3.1922e-08
4.63745e-09
6.33355e-10
8.15102e-11
9.90686e-12
1.13952e-12
1.24284e-13
1.28764e-14
1.26938e-15
1.19257e-16
1.06928e-17
9.16215e-19
7.51176e-20
5.89961e-21
4.44332e-22
3.21239e-23
2.23145e-24
1.49059e-25
9.58291e-27
5.93372e-28
3.54124e-29
2.0383e-30
1.13222e-31
6.07295e-33
3.14705e-34
1.57639e-35
7.63641e-37
3.57906e-38
1.62362e-39
7.1319e-41
3.03452e-42
1.25108e-43
4.99954e-45
1.93711e-46
7.2791e-48
2.65346e-49
9.38561e-51
3.222e-52
1.07372e-53
3.47406e-55
1.09156e-56
3.33108e-58
9.87451e-60
2.84379e-61
7.95756e-63
2.16376e-64
5.71779e-66
1.46848e-67
3.66574e-69
8.8947e-71
2.09796e-72
4.81031e-74
1.07218e-75
2.32321e-77
4.89365e-79
1.00206e-80
1.99464e-82
3.85945e-84
7.25871e-86
1.32691e-87
2.35742e-89
4.07021e-91
6.82866e-93
1.11314e-94
1.76282e-96
2.71176e-98
4.05153e-100
5.87817e-102
8.28032e-104
1.13228e-105
1.5027e-107
1.93514e-109
2.41753e-111
2.92917e-113
3.44122e-115
3.91882e-117
4.32453e-119
4.62303e-121
4.78596e-123
4.79641e-125
4.65173e-127
4.36646e-129
3.96316e-131
3.53267e-133
3.00625e-135
3.20119e-137
3.20119e-137
0.884981
1.11502
1.09293
0.735425
0.356028
0.135974
0.0441536
0.0127453
0.00334314
0.00080491
0.000178773
3.67474e-05
7.01002e-06
1.24432e-06
2.06068e-07
3.1922e-08
4.63745e-09
6.33355e-10
8.15102e-11
9.90686e-12
1.13952e-12
1.24284e-13
1.28764e-14
1.26938e-15
1.19257e-16
1.06928e-17
9.16215e-19
7.51176e-20
5.89961e-21
4.44332e-22
3.21239e-23
2.23145e-24
1.49059e-25
9.58291e-27
5.93372e-28
3.54124e-29
2.0383e-30
1.13222e-31
6.07295e-33
3.14705e-34
1.57639e-35
7.63641e-37
3.57906e-38
1.62362e-39
7.1319e-41
3.03452e-42
1.25108e-43
4.99954e-45
1.93711e-46
7.2791e-48
2.65346e-49
9.38561e-51
3.222e-52
1.07372e-53
3.47406e-55
1.09156e-56
3.33108e-58
9.87451e-60
2.84379e-61
7.95756e-63
2.16376e-64
5.71779e-66
1.46848e-67
3.66574e-69
8.8947e-71
2.09796e-72
4.81031e-74
1.07218e-75
2.32321e-77
4.89365e-79
1.00206e-80
1.99464e-82
3.85945e-84
7.25871e-86
1.32691e-87
2.35742e-89
4.07021e-91
6.82866e-93
1.11314e-94
1.76282e-96
2.71176e-98
4.05153e-100
5.87817e-102
8.28032e-104
1.13228e-105
1.5027e-107
1.93514e-109
2.41753e-111
2.92917e-113
3.44122e-115
3.91882e-117
4.32453e-119
4.62303e-121
4.78596e-123
4.79641e-125
4.65173e-127
4.36646e-129
3.96316e-131
3.53267e-133
3.00625e-135
3.20119e-137
3.20119e-137
0.983617
1.01638
0.996856
0.789119
0.495298
0.253958
0.1096
0.0407332
0.0132659
0.003838
0.000997284
0.000234847
5.04943e-05
9.97506e-06
1.82023e-06
3.08236e-07
4.86345e-08
7.17577e-09
9.93216e-10
1.29336e-10
1.58862e-11
1.84488e-12
2.02997e-13
2.12047e-14
2.10654e-15
1.99349e-16
1.79975e-17
1.55228e-18
1.28068e-19
1.0119e-20
7.66535e-22
5.57275e-23
3.89187e-24
2.61325e-25
1.68846e-26
1.05056e-27
6.29908e-29
3.64211e-30
2.03197e-31
1.09452e-32
5.69514e-34
2.86409e-35
1.39276e-36
6.55186e-38
2.98289e-39
1.31481e-40
5.6131e-42
2.32169e-43
9.30698e-45
3.61697e-46
1.36312e-47
4.98301e-49
1.76734e-50
6.08305e-52
2.03227e-53
6.59156e-55
2.07594e-56
6.34944e-58
1.8863e-59
5.44381e-61
1.52638e-62
4.15849e-64
1.10094e-65
2.8326e-67
7.0832e-69
1.72155e-70
4.06706e-72
9.33949e-74
2.08478e-75
4.52372e-77
9.5418e-79
1.95641e-80
3.8992e-82
7.55372e-84
1.42232e-85
2.60293e-87
4.62938e-89
8.00103e-91
1.34367e-92
2.19238e-94
3.47508e-96
5.35039e-98
8.00045e-100
1.16167e-101
1.63765e-103
2.24101e-105
2.97624e-107
3.83529e-109
4.79443e-111
5.81266e-113
6.83279e-115
7.78545e-117
8.59608e-119
9.1941e-121
9.5228e-123
9.548e-125
9.26534e-127
8.69682e-129
7.9323e-131
6.94874e-133
6.47573e-135
6.47573e-135
1.00272
0.997281
0.953109
0.782254
0.531892
0.301237
0.144284
0.0593795
0.0213047
0.00675034
0.00190999
0.000487244
0.000112983
2.398e-05
4.68635e-06
8.47616e-07
1.4252e-07
2.23645e-08
3.28663e-09
4.53712e-10
5.89984e-11
7.24443e-12
8.41861e-13
9.27745e-14
9.71336e-15
9.6782e-16
9.19126e-17
8.33159e-18
7.21807e-19
5.98384e-20
4.75215e-21
3.61913e-22
2.6457e-23
1.85818e-24
1.25491e-25
8.15556e-27
5.1042e-28
3.07845e-29
1.79038e-30
1.00468e-31
5.4428e-33
2.84814e-34
1.44032e-35
7.04231e-37
3.3306e-38
1.52425e-39
6.75288e-41
2.89716e-42
1.20408e-43
4.84929e-45
1.89307e-46
7.16545e-48
2.6304e-49
9.36714e-51
3.23666e-52
1.08538e-53
3.53303e-55
1.11653e-56
3.4263e-58
1.02111e-59
2.95582e-61
8.31173e-63
2.27071e-64
6.02743e-66
1.55468e-67
3.89688e-69
9.49275e-71
2.24742e-72
5.17146e-74
1.15662e-75
2.51431e-77
5.31258e-79
1.09105e-80
2.17785e-82
4.22516e-84
7.96659e-86
1.4598e-87
2.5994e-89
4.49764e-91
7.5611e-93
1.2349e-94
1.95918e-96
3.01897e-98
4.51776e-100
6.56449e-102
9.26018e-104
1.26794e-105
1.68483e-107
2.17217e-109
2.71655e-111
3.29472e-113
3.87421e-115
4.41559e-117
4.87647e-119
5.21667e-121
5.40383e-123
5.41863e-125
5.25598e-127
4.93666e-129
4.45106e-131
3.97775e-133
3.97775e-133
1.0136
0.986401
0.912981
0.739619
0.505594
0.291147
0.142673
0.0602668
0.0222264
0.00724132
0.00210598
0.000551747
0.000131254
2.85468e-05
5.71044e-06
1.05613e-06
1.81418e-07
2.9061e-08
4.35666e-09
6.13171e-10
8.12497e-11
1.01619e-11
1.20236e-12
1.34865e-13
1.43677e-14
1.45628e-15
1.40655e-16
1.29642e-17
1.14181e-18
9.62125e-20
7.76521e-21
6.0092e-22
4.4632e-23
3.18447e-24
2.18453e-25
1.44196e-26
9.16521e-28
5.61343e-29
3.31505e-30
1.88883e-31
1.03893e-32
5.51944e-34
2.83363e-35
1.40648e-36
6.75236e-38
3.13684e-39
1.41063e-40
6.1429e-42
2.59134e-43
1.05927e-44
4.1971e-46
1.61241e-47
6.00755e-49
2.17132e-50
7.61474e-52
2.59168e-53
8.56226e-55
2.74635e-56
8.55374e-58
2.58735e-59
7.60177e-61
2.16964e-62
6.01626e-64
1.62096e-65
4.24388e-67
1.07977e-68
2.66999e-70
6.41675e-72
1.49888e-73
3.40314e-75
7.51031e-77
1.61104e-78
3.35909e-80
6.80764e-82
1.34097e-83
2.56726e-85
4.77671e-87
8.63709e-89
1.51758e-90
2.59088e-92
4.2974e-94
6.92438e-96
1.08372e-97
1.64724e-99
2.43125e-101
3.4839e-103
4.84604e-105
6.54195e-107
8.5691e-109
1.08886e-110
1.34187e-112
1.6034e-114
1.85711e-116
2.08436e-118
2.26624e-120
2.3861e-122
2.4318e-124
2.39787e-126
2.28447e-128
2.09393e-130
1.83801e-132
1.83801e-132
1.10783
0.89217
0.750498
0.582558
0.390967
0.223558
0.109438
0.0463453
0.0171742
0.00562988
0.00164868
0.000435058
0.000104241
2.28304e-05
4.59757e-06
8.55724e-07
1.47884e-07
2.38258e-08
3.59148e-09
5.08144e-10
6.76747e-11
8.5056e-12
1.01117e-12
1.13944e-13
1.21937e-14
1.24136e-15
1.20414e-16
1.11454e-17
9.85689e-19
8.3396e-20
6.75783e-21
5.25032e-22
3.91479e-23
2.80396e-24
1.93084e-25
1.27931e-26
8.1618e-28
5.01738e-29
2.97394e-30
1.70065e-31
9.38802e-33
5.00545e-34
2.57893e-35
1.28461e-36
6.18909e-38
2.8853e-39
1.30206e-40
5.68993e-42
2.40862e-43
9.88001e-45
3.92829e-46
1.51436e-47
5.66176e-49
2.05341e-50
7.22609e-52
2.46789e-53
8.18144e-55
2.63326e-56
8.22987e-58
2.498e-59
7.3647e-61
2.10928e-62
5.86924e-64
1.58687e-65
4.16916e-67
1.06449e-68
2.64146e-70
6.37065e-72
1.4934e-73
3.40279e-75
7.53646e-77
1.62247e-78
3.39517e-80
6.90582e-82
1.36529e-83
2.62346e-85
4.89938e-87
8.89197e-89
1.56824e-90
2.6875e-92
4.47467e-94
7.23772e-96
1.13715e-97
1.7352e-99
2.57117e-101
3.69903e-103
5.1659e-105
7.00196e-107
9.20909e-109
1.175e-110
1.45406e-112
1.74475e-114
2.02941e-116
2.28752e-118
2.4979e-120
2.6415e-122
2.70391e-124
2.67796e-126
2.55999e-128
2.35738e-130
2.03592e-132
2.03592e-132
-0.105746
0.105746
0.202175
0.206394
0.156589
0.0955184
0.0485782
0.0210779
0.00793837
0.00263137
0.000776567
0.00020603
4.95476e-05
1.08778e-05
2.19368e-06
4.08561e-07
7.06068e-08
1.13697e-08
1.71221e-09
2.4193e-10
3.21668e-11
4.03496e-12
4.78631e-13
5.38035e-14
5.74251e-15
5.82951e-16
5.63762e-17
5.20152e-18
4.58479e-19
3.86547e-20
3.1209e-21
2.41553e-22
1.79402e-23
1.27976e-24
8.77571e-26
5.78945e-27
3.6772e-28
2.25021e-29
1.32751e-30
7.55491e-32
4.14995e-33
2.20147e-34
1.12838e-35
5.59085e-37
2.679e-38
1.24199e-39
5.57296e-41
2.42122e-42
1.01885e-43
4.15391e-45
1.64135e-46
6.28736e-48
2.33545e-49
8.41422e-51
2.94102e-52
9.97501e-54
3.28357e-55
1.04924e-56
3.25513e-58
9.80606e-60
2.86889e-61
8.15225e-63
2.25028e-64
6.03434e-66
1.57216e-67
3.97988e-69
9.78977e-71
2.34006e-72
5.43564e-74
1.22702e-75
2.69177e-77
5.73863e-79
1.18894e-80
2.39376e-82
4.68335e-84
8.90367e-86
1.64472e-87
2.95185e-89
5.14686e-91
8.7175e-93
1.43416e-94
2.29144e-96
3.5552e-98
5.35551e-100
7.83155e-102
1.11155e-103
1.53095e-105
2.04576e-107
2.65163e-109
3.33296e-111
4.06158e-113
4.79719e-115
5.49008e-117
6.08601e-119
6.53282e-121
6.78769e-123
6.82319e-125
6.63273e-127
6.21981e-129
5.61525e-131
4.75183e-133
4.75183e-133
-0.0108592
0.0108592
0.0395829
0.0497648
0.0419686
0.0272438
0.014406
0.00640732
0.00245065
0.000819782
0.000243105
6.4619e-05
1.55374e-05
3.40564e-06
6.84977e-07
1.27135e-07
2.18821e-08
3.50758e-09
5.25593e-10
7.38676e-11
9.76568e-12
1.2177e-12
1.43547e-13
1.60321e-14
1.69971e-15
1.7136e-16
1.6455e-17
1.50722e-18
1.31867e-19
1.10337e-20
8.83956e-22
6.78784e-23
5.00096e-24
3.53832e-25
2.40621e-26
1.57403e-27
9.91192e-29
6.01272e-30
3.5159e-31
1.98298e-32
1.07936e-33
5.67303e-35
2.88057e-36
1.41372e-37
6.70909e-39
3.08004e-40
1.3684e-41
5.88557e-43
2.45151e-44
9.89207e-46
3.86792e-47
1.46598e-48
5.38701e-50
1.91976e-51
6.63618e-53
2.22564e-54
7.24338e-56
2.28798e-57
7.01552e-59
2.08846e-60
6.03687e-62
1.6946e-63
4.61996e-65
1.2234e-66
3.14694e-68
7.86377e-70
1.90906e-71
4.5027e-73
1.03182e-74
2.29733e-76
4.96973e-78
1.04455e-79
2.13308e-81
4.23209e-83
8.15739e-85
1.52748e-86
2.77843e-88
4.90895e-90
8.4237e-92
1.40378e-93
2.27156e-95
3.56881e-97
5.44294e-99
8.05724e-101
1.15746e-102
1.61328e-104
2.18127e-106
2.8603e-108
3.63673e-110
4.48227e-112
5.35368e-114
6.1951e-116
6.94304e-118
7.53375e-120
7.9118e-122
8.03855e-124
7.89783e-126
7.49999e-128
6.87399e-130
6.05664e-132
5.11423e-134
5.11423e-134
-0.000930595
0.000930595
0.00633201
0.00927606
0.00847855
0.00577159
0.00313677
0.0014148
0.000543772
0.000181674
5.35901e-05
1.41319e-05
3.36527e-06
7.29717e-07
1.45082e-07
2.66037e-08
4.52193e-09
7.15562e-10
1.05819e-10
1.46733e-11
1.91353e-12
2.35308e-13
2.73507e-14
3.01139e-15
3.14687e-16
3.12661e-17
2.95839e-18
2.66974e-19
2.30095e-20
1.89633e-21
1.49621e-22
1.13139e-23
8.2073e-25
5.71691e-26
3.82709e-27
2.46417e-28
1.52718e-29
9.11659e-31
5.24541e-32
2.9107e-33
1.5586e-34
8.0579e-36
4.0242e-37
1.94228e-38
9.06375e-40
4.09119e-41
1.78692e-42
7.55491e-44
3.09295e-45
1.22651e-46
4.71254e-48
1.75486e-49
6.33503e-51
2.21755e-52
7.52865e-54
2.47951e-55
7.92327e-57
2.45701e-58
7.39506e-60
2.16059e-61
6.12851e-63
1.68787e-64
4.51411e-66
1.17244e-67
2.95752e-69
7.2462e-71
1.7245e-72
3.98657e-74
8.95228e-76
1.95286e-77
4.13819e-79
8.51822e-81
1.70324e-82
3.30808e-84
6.24064e-86
1.14342e-87
2.03461e-89
3.51569e-91
5.89867e-93
9.60865e-95
1.51943e-96
2.33211e-98
3.47375e-100
5.02061e-102
7.03952e-104
9.5735e-106
1.26254e-107
1.61422e-109
2.00041e-111
2.4021e-113
2.7942e-115
3.1476e-117
3.43255e-119
3.62254e-121
3.69833e-123
3.65106e-125
3.48402e-127
3.21152e-129
2.86262e-131
2.44676e-133
2.09048e-135
2.09048e-135
-6.2111e-05
6.2111e-05
0.000886551
0.00145127
0.00138928
0.000958218
0.000517066
0.000228736
8.56212e-05
2.77541e-05
7.92793e-06
2.02275e-06
4.65915e-07
9.77202e-08
1.87952e-08
3.33477e-09
5.48574e-10
8.40326e-11
1.20325e-11
1.6159e-12
2.04136e-13
2.43232e-14
2.74003e-15
2.92453e-16
2.96327e-17
2.85541e-18
2.6209e-19
2.29488e-20
1.9195e-21
1.53559e-22
1.17633e-23
8.63781e-25
6.08605e-26
4.11834e-27
2.67875e-28
1.67615e-29
1.00969e-30
5.85938e-32
3.27786e-33
1.76874e-34
9.2112e-36
4.63212e-37
2.25044e-38
1.05677e-39
4.79856e-41
2.10781e-42
8.95997e-44
3.68717e-45
1.46938e-46
5.67238e-48
2.12183e-49
7.6929e-51
2.70402e-52
9.21663e-54
3.04698e-55
9.77211e-57
3.04094e-58
9.18332e-60
2.69172e-61
7.65876e-63
2.11562e-64
5.67434e-66
1.47785e-67
3.73786e-69
9.1816e-71
2.1905e-72
5.0759e-74
1.14247e-75
2.49772e-77
5.3041e-79
1.09407e-80
2.192e-82
4.26557e-84
8.06191e-86
1.47978e-87
2.63771e-89
4.5655e-91
7.67255e-93
1.2518e-94
1.98251e-96
3.04737e-98
4.54565e-100
6.57896e-102
9.23691e-104
1.25782e-105
1.66089e-107
2.12614e-109
2.63792e-111
3.17128e-113
3.69304e-115
4.16464e-117
4.54642e-119
4.80296e-121
4.9083e-123
4.85026e-125
4.63267e-127
4.27577e-129
3.81101e-131
3.29741e-133
2.73161e-135
2.44645e-137
2.44645e-137
-4.08477e-06
4.08477e-06
0.000143249
0.000237076
0.000213638
0.000135202
6.65515e-05
2.69088e-05
9.24681e-06
2.76465e-06
7.31621e-07
1.73619e-07
3.73265e-08
7.33015e-09
1.32379e-09
2.211e-10
3.43176e-11
4.97058e-12
6.74273e-13
8.59389e-14
1.03205e-14
1.17075e-15
1.2574e-16
1.28118e-17
1.24075e-18
1.14401e-19
1.00581e-20
8.44403e-22
6.77796e-23
5.20809e-24
3.83502e-25
2.70899e-26
1.83742e-27
1.1977e-28
7.50905e-30
4.53152e-31
2.6341e-32
1.47584e-33
7.97493e-35
4.15862e-36
2.09382e-37
1.01839e-38
4.7872e-40
2.17585e-41
9.56617e-43
4.06982e-44
1.67609e-45
6.68422e-47
2.5821e-48
9.66471e-50
3.50606e-51
1.23303e-52
4.20489e-54
1.39077e-55
4.46235e-57
1.38919e-58
4.19679e-60
1.23056e-61
3.50246e-63
9.67802e-65
2.5965e-66
6.76428e-68
1.71128e-69
4.20452e-71
1.00331e-72
2.32537e-74
5.23485e-76
1.14466e-77
2.43117e-79
5.01551e-81
1.005e-82
1.95596e-84
3.69718e-86
6.787e-88
1.2099e-89
2.09435e-91
3.51995e-93
5.74331e-95
9.09647e-97
1.39833e-98
2.08595e-100
3.01915e-102
4.23909e-104
5.77273e-106
7.62284e-108
9.75839e-110
1.21076e-111
1.45558e-113
1.69509e-115
1.91156e-117
2.08681e-119
2.20456e-121
2.25291e-123
2.22624e-125
2.12634e-127
1.96219e-129
1.74961e-131
1.50576e-133
1.27152e-135
1.02041e-137
1.04564e-139
1.04564e-139
-4.08477e-06
4.08477e-06
0.000143249
0.000237076
0.000213638
0.000135202
6.65515e-05
2.69088e-05
9.24681e-06
2.76465e-06
7.31621e-07
1.73619e-07
3.73265e-08
7.33015e-09
1.32379e-09
2.211e-10
3.43176e-11
4.97058e-12
6.74273e-13
8.59389e-14
1.03205e-14
1.17075e-15
1.2574e-16
1.28118e-17
1.24075e-18
1.14401e-19
1.00581e-20
8.44403e-22
6.77796e-23
5.20809e-24
3.83502e-25
2.70899e-26
1.83742e-27
1.1977e-28
7.50905e-30
4.53152e-31
2.6341e-32
1.47584e-33
7.97493e-35
4.15862e-36
2.09382e-37
1.01839e-38
4.7872e-40
2.17585e-41
9.56617e-43
4.06982e-44
1.67609e-45
6.68422e-47
2.5821e-48
9.66471e-50
3.50606e-51
1.23303e-52
4.20489e-54
1.39077e-55
4.46235e-57
1.38919e-58
4.19679e-60
1.23056e-61
3.50246e-63
9.67802e-65
2.5965e-66
6.76428e-68
1.71128e-69
4.20452e-71
1.00331e-72
2.32537e-74
5.23485e-76
1.14466e-77
2.43117e-79
5.01551e-81
1.005e-82
1.95596e-84
3.69718e-86
6.787e-88
1.2099e-89
2.09435e-91
3.51995e-93
5.74331e-95
9.09647e-97
1.39833e-98
2.08595e-100
3.01915e-102
4.23909e-104
5.77273e-106
7.62284e-108
9.75839e-110
1.21076e-111
1.45558e-113
1.69509e-115
1.91156e-117
2.08681e-119
2.20456e-121
2.25291e-123
2.22624e-125
2.12634e-127
1.96219e-129
1.74961e-131
1.50576e-133
1.27152e-135
1.02041e-137
1.04564e-139
1.04564e-139
