# vtk DataFile Version 2.0
FlowField
ASCII
DATASET STRUCTURED_GRID
DIMENSIONS 102 1 12 
POINTS 1224 double
0 0 0
0.4 0 0
0.8 0 0
1.2 0 0
1.6 0 0
2 0 0
2.4 0 0
2.8 0 0
3.2 0 0
3.6 0 0
4 0 0
4.4 0 0
4.8 0 0
5.2 0 0
5.6 0 0
6 0 0
6.4 0 0
6.8 0 0
7.2 0 0
7.6 0 0
8 0 0
8.4 0 0
8.8 0 0
9.2 0 0
9.6 0 0
10 0 0
10.4 0 0
10.8 0 0
11.2 0 0
11.6 0 0
12 0 0
12.4 0 0
12.8 0 0
13.2 0 0
13.6 0 0
14 0 0
14.4 0 0
14.8 0 0
15.2 0 0
15.6 0 0
16 0 0
16.4 0 0
16.8 0 0
17.2 0 0
17.6 0 0
18 0 0
18.4 0 0
18.8 0 0
19.2 0 0
19.6 0 0
20 0 0
20.4 0 0
20.8 0 0
21.2 0 0
21.6 0 0
22 0 0
22.4 0 0
22.8 0 0
23.2 0 0
23.6 0 0
24 0 0
24.4 0 0
24.8 0 0
25.2 0 0
25.6 0 0
26 0 0
26.4 0 0
26.8 0 0
27.2 0 0
27.6 0 0
28 0 0
28.4 0 0
28.8 0 0
29.2 0 0
29.6 0 0
30 0 0
30.4 0 0
30.8 0 0
31.2 0 0
31.6 0 0
32 0 0
32.4 0 0
32.8 0 0
33.2 0 0
33.6 0 0
34 0 0
34.4 0 0
34.8 0 0
35.2 0 0
35.6 0 0
36 0 0
36.4 0 0
36.8 0 0
37.2 0 0
37.6 0 0
38 0 0
38.4 0 0
38.8 0 0
39.2 0 0
39.6 0 0
40 0 0
40.4 0 0
0 0.1 0
0.4 0.1 0
0.8 0.1 0
1.2 0.1 0
1.6 0.1 0
2 0.1 0
2.4 0.1 0
2.8 0.1 0
3.2 0.1 0
3.6 0.1 0
4 0.1 0
4.4 0.1 0
4.8 0.1 0
5.2 0.1 0
5.6 0.1 0
6 0.1 0
6.4 0.1 0
6.8 0.1 0
7.2 0.1 0
7.6 0.1 0
8 0.1 0
8.4 0.1 0
8.8 0.1 0
9.2 0.1 0
9.6 0.1 0
10 0.1 0
10.4 0.1 0
10.8 0.1 0
11.2 0.1 0
11.6 0.1 0
12 0.1 0
12.4 0.1 0
12.8 0.1 0
13.2 0.1 0
13.6 0.1 0
14 0.1 0
14.4 0.1 0
14.8 0.1 0
15.2 0.1 0
15.6 0.1 0
16 0.1 0
16.4 0.1 0
16.8 0.1 0
17.2 0.1 0
17.6 0.1 0
18 0.1 0
18.4 0.1 0
18.8 0.1 0
19.2 0.1 0
19.6 0.1 0
20 0.1 0
20.4 0.1 0
20.8 0.1 0
21.2 0.1 0
21.6 0.1 0
22 0.1 0
22.4 0.1 0
22.8 0.1 0
23.2 0.1 0
23.6 0.1 0
24 0.1 0
24.4 0.1 0
24.8 0.1 0
25.2 0.1 0
25.6 0.1 0
26 0.1 0
26.4 0.1 0
26.8 0.1 0
27.2 0.1 0
27.6 0.1 0
28 0.1 0
28.4 0.1 0
28.8 0.1 0
29.2 0.1 0
29.6 0.1 0
30 0.1 0
30.4 0.1 0
30.8 0.1 0
31.2 0.1 0
31.6 0.1 0
32 0.1 0
32.4 0.1 0
32.8 0.1 0
33.2 0.1 0
33.6 0.1 0
34 0.1 0
34.4 0.1 0
34.8 0.1 0
35.2 0.1 0
35.6 0.1 0
36 0.1 0
36.4 0.1 0
36.8 0.1 0
37.2 0.1 0
37.6 0.1 0
38 0.1 0
38.4 0.1 0
38.8 0.1 0
39.2 0.1 0
39.6 0.1 0
40 0.1 0
40.4 0.1 0
0 0.2 0
0.4 0.2 0
0.8 0.2 0
1.2 0.2 0
1.6 0.2 0
2 0.2 0
2.4 0.2 0
2.8 0.2 0
3.2 0.2 0
3.6 0.2 0
4 0.2 0
4.4 0.2 0
4.8 0.2 0
5.2 0.2 0
5.6 0.2 0
6 0.2 0
6.4 0.2 0
6.8 0.2 0
7.2 0.2 0
7.6 0.2 0
8 0.2 0
8.4 0.2 0
8.8 0.2 0
9.2 0.2 0
9.6 0.2 0
10 0.2 0
10.4 0.2 0
10.8 0.2 0
11.2 0.2 0
11.6 0.2 0
12 0.2 0
12.4 0.2 0
12.8 0.2 0
13.2 0.2 0
13.6 0.2 0
14 0.2 0
14.4 0.2 0
14.8 0.2 0
15.2 0.2 0
15.6 0.2 0
16 0.2 0
16.4 0.2 0
16.8 0.2 0
17.2 0.2 0
17.6 0.2 0
18 0.2 0
18.4 0.2 0
18.8 0.2 0
19.2 0.2 0
19.6 0.2 0
20 0.2 0
20.4 0.2 0
20.8 0.2 0
21.2 0.2 0
21.6 0.2 0
22 0.2 0
22.4 0.2 0
22.8 0.2 0
23.2 0.2 0
23.6 0.2 0
24 0.2 0
24.4 0.2 0
24.8 0.2 0
25.2 0.2 0
25.6 0.2 0
26 0.2 0
26.4 0.2 0
26.8 0.2 0
27.2 0.2 0
27.6 0.2 0
28 0.2 0
28.4 0.2 0
28.8 0.2 0
29.2 0.2 0
29.6 0.2 0
30 0.2 0
30.4 0.2 0
30.8 0.2 0
31.2 0.2 0
31.6 0.2 0
32 0.2 0
32.4 0.2 0
32.8 0.2 0
33.2 0.2 0
33.6 0.2 0
34 0.2 0
34.4 0.2 0
34.8 0.2 0
35.2 0.2 0
35.6 0.2 0
36 0.2 0
36.4 0.2 0
36.8 0.2 0
37.2 0.2 0
37.6 0.2 0
38 0.2 0
38.4 0.2 0
38.8 0.2 0
39.2 0.2 0
39.6 0.2 0
40 0.2 0
40.4 0.2 0
0 0.3 0
0.4 0.3 0
0.8 0.3 0
1.2 0.3 0
1.6 0.3 0
2 0.3 0
2.4 0.3 0
2.8 0.3 0
3.2 0.3 0
3.6 0.3 0
4 0.3 0
4.4 0.3 0
4.8 0.3 0
5.2 0.3 0
5.6 0.3 0
6 0.3 0
6.4 0.3 0
6.8 0.3 0
7.2 0.3 0
7.6 0.3 0
8 0.3 0
8.4 0.3 0
8.8 0.3 0
9.2 0.3 0
9.6 0.3 0
10 0.3 0
10.4 0.3 0
10.8 0.3 0
11.2 0.3 0
11.6 0.3 0
12 0.3 0
12.4 0.3 0
12.8 0.3 0
13.2 0.3 0
13.6 0.3 0
14 0.3 0
14.4 0.3 0
14.8 0.3 0
15.2 0.3 0
15.6 0.3 0
16 0.3 0
16.4 0.3 0
16.8 0.3 0
17.2 0.3 0
17.6 0.3 0
18 0.3 0
18.4 0.3 0
18.8 0.3 0
19.2 0.3 0
19.6 0.3 0
20 0.3 0
20.4 0.3 0
20.8 0.3 0
21.2 0.3 0
21.6 0.3 0
22 0.3 0
22.4 0.3 0
22.8 0.3 0
23.2 0.3 0
23.6 0.3 0
24 0.3 0
24.4 0.3 0
24.8 0.3 0
25.2 0.3 0
25.6 0.3 0
26 0.3 0
26.4 0.3 0
26.8 0.3 0
27.2 0.3 0
27.6 0.3 0
28 0.3 0
28.4 0.3 0
28.8 0.3 0
29.2 0.3 0
29.6 0.3 0
30 0.3 0
30.4 0.3 0
30.8 0.3 0
31.2 0.3 0
31.6 0.3 0
32 0.3 0
32.4 0.3 0
32.8 0.3 0
33.2 0.3 0
33.6 0.3 0
34 0.3 0
34.4 0.3 0
34.8 0.3 0
35.2 0.3 0
35.6 0.3 0
36 0.3 0
36.4 0.3 0
36.8 0.3 0
37.2 0.3 0
37.6 0.3 0
38 0.3 0
38.4 0.3 0
38.8 0.3 0
39.2 0.3 0
39.6 0.3 0
40 0.3 0
40.4 0.3 0
0 0.4 0
0.4 0.4 0
0.8 0.4 0
1.2 0.4 0
1.6 0.4 0
2 0.4 0
2.4 0.4 0
2.8 0.4 0
3.2 0.4 0
3.6 0.4 0
4 0.4 0
4.4 0.4 0
4.8 0.4 0
5.2 0.4 0
5.6 0.4 0
6 0.4 0
6.4 0.4 0
6.8 0.4 0
7.2 0.4 0
7.6 0.4 0
8 0.4 0
8.4 0.4 0
8.8 0.4 0
9.2 0.4 0
9.6 0.4 0
10 0.4 0
10.4 0.4 0
10.8 0.4 0
11.2 0.4 0
11.6 0.4 0
12 0.4 0
12.4 0.4 0
12.8 0.4 0
13.2 0.4 0
13.6 0.4 0
14 0.4 0
14.4 0.4 0
14.8 0.4 0
15.2 0.4 0
15.6 0.4 0
16 0.4 0
16.4 0.4 0
16.8 0.4 0
17.2 0.4 0
17.6 0.4 0
18 0.4 0
18.4 0.4 0
18.8 0.4 0
19.2 0.4 0
19.6 0.4 0
20 0.4 0
20.4 0.4 0
20.8 0.4 0
21.2 0.4 0
21.6 0.4 0
22 0.4 0
22.4 0.4 0
22.8 0.4 0
23.2 0.4 0
23.6 0.4 0
24 0.4 0
24.4 0.4 0
24.8 0.4 0
25.2 0.4 0
25.6 0.4 0
26 0.4 0
26.4 0.4 0
26.8 0.4 0
27.2 0.4 0
27.6 0.4 0
28 0.4 0
28.4 0.4 0
28.8 0.4 0
29.2 0.4 0
29.6 0.4 0
30 0.4 0
30.4 0.4 0
30.8 0.4 0
31.2 0.4 0
31.6 0.4 0
32 0.4 0
32.4 0.4 0
32.8 0.4 0
33.2 0.4 0
33.6 0.4 0
34 0.4 0
34.4 0.4 0
34.8 0.4 0
35.2 0.4 0
35.6 0.4 0
36 0.4 0
36.4 0.4 0
36.8 0.4 0
37.2 0.4 0
37.6 0.4 0
38 0.4 0
38.4 0.4 0
38.8 0.4 0
39.2 0.4 0
39.6 0.4 0
40 0.4 0
40.4 0.4 0
0 0.5 0
0.4 0.5 0
0.8 0.5 0
1.2 0.5 0
1.6 0.5 0
2 0.5 0
2.4 0.5 0
2.8 0.5 0
3.2 0.5 0
3.6 0.5 0
4 0.5 0
4.4 0.5 0
4.8 0.5 0
5.2 0.5 0
5.6 0.5 0
6 0.5 0
6.4 0.5 0
6.8 0.5 0
7.2 0.5 0
7.6 0.5 0
8 0.5 0
8.4 0.5 0
8.8 0.5 0
9.2 0.5 0
9.6 0.5 0
10 0.5 0
10.4 0.5 0
10.8 0.5 0
11.2 0.5 0
11.6 0.5 0
12 0.5 0
12.4 0.5 0
12.8 0.5 0
13.2 0.5 0
13.6 0.5 0
14 0.5 0
14.4 0.5 0
14.8 0.5 0
15.2 0.5 0
15.6 0.5 0
16 0.5 0
16.4 0.5 0
16.8 0.5 0
17.2 0.5 0
17.6 0.5 0
18 0.5 0
18.4 0.5 0
18.8 0.5 0
19.2 0.5 0
19.6 0.5 0
20 0.5 0
20.4 0.5 0
20.8 0.5 0
21.2 0.5 0
21.6 0.5 0
22 0.5 0
22.4 0.5 0
22.8 0.5 0
23.2 0.5 0
23.6 0.5 0
24 0.5 0
24.4 0.5 0
24.8 0.5 0
25.2 0.5 0
25.6 0.5 0
26 0.5 0
26.4 0.5 0
26.8 0.5 0
27.2 0.5 0
27.6 0.5 0
28 0.5 0
28.4 0.5 0
28.8 0.5 0
29.2 0.5 0
29.6 0.5 0
30 0.5 0
30.4 0.5 0
30.8 0.5 0
31.2 0.5 0
31.6 0.5 0
32 0.5 0
32.4 0.5 0
32.8 0.5 0
33.2 0.5 0
33.6 0.5 0
34 0.5 0
34.4 0.5 0
34.8 0.5 0
35.2 0.5 0
35.6 0.5 0
36 0.5 0
36.4 0.5 0
36.8 0.5 0
37.2 0.5 0
37.6 0.5 0
38 0.5 0
38.4 0.5 0
38.8 0.5 0
39.2 0.5 0
39.6 0.5 0
40 0.5 0
40.4 0.5 0
0 0.6 0
0.4 0.6 0
0.8 0.6 0
1.2 0.6 0
1.6 0.6 0
2 0.6 0
2.4 0.6 0
2.8 0.6 0
3.2 0.6 0
3.6 0.6 0
4 0.6 0
4.4 0.6 0
4.8 0.6 0
5.2 0.6 0
5.6 0.6 0
6 0.6 0
6.4 0.6 0
6.8 0.6 0
7.2 0.6 0
7.6 0.6 0
8 0.6 0
8.4 0.6 0
8.8 0.6 0
9.2 0.6 0
9.6 0.6 0
10 0.6 0
10.4 0.6 0
10.8 0.6 0
11.2 0.6 0
11.6 0.6 0
12 0.6 0
12.4 0.6 0
12.8 0.6 0
13.2 0.6 0
13.6 0.6 0
14 0.6 0
14.4 0.6 0
14.8 0.6 0
15.2 0.6 0
15.6 0.6 0
16 0.6 0
16.4 0.6 0
16.8 0.6 0
17.2 0.6 0
17.6 0.6 0
18 0.6 0
18.4 0.6 0
18.8 0.6 0
19.2 0.6 0
19.6 0.6 0
20 0.6 0
20.4 0.6 0
20.8 0.6 0
21.2 0.6 0
21.6 0.6 0
22 0.6 0
22.4 0.6 0
22.8 0.6 0
23.2 0.6 0
23.6 0.6 0
24 0.6 0
24.4 0.6 0
24.8 0.6 0
25.2 0.6 0
25.6 0.6 0
26 0.6 0
26.4 0.6 0
26.8 0.6 0
27.2 0.6 0
27.6 0.6 0
28 0.6 0
28.4 0.6 0
28.8 0.6 0
29.2 0.6 0
29.6 0.6 0
30 0.6 0
30.4 0.6 0
30.8 0.6 0
31.2 0.6 0
31.6 0.6 0
32 0.6 0
32.4 0.6 0
32.8 0.6 0
33.2 0.6 0
33.6 0.6 0
34 0.6 0
34.4 0.6 0
34.8 0.6 0
35.2 0.6 0
35.6 0.6 0
36 0.6 0
36.4 0.6 0
36.8 0.6 0
37.2 0.6 0
37.6 0.6 0
38 0.6 0
38.4 0.6 0
38.8 0.6 0
39.2 0.6 0
39.6 0.6 0
40 0.6 0
40.4 0.6 0
0 0.7 0
0.4 0.7 0
0.8 0.7 0
1.2 0.7 0
1.6 0.7 0
2 0.7 0
2.4 0.7 0
2.8 0.7 0
3.2 0.7 0
3.6 0.7 0
4 0.7 0
4.4 0.7 0
4.8 0.7 0
5.2 0.7 0
5.6 0.7 0
6 0.7 0
6.4 0.7 0
6.8 0.7 0
7.2 0.7 0
7.6 0.7 0
8 0.7 0
8.4 0.7 0
8.8 0.7 0
9.2 0.7 0
9.6 0.7 0
10 0.7 0
10.4 0.7 0
10.8 0.7 0
11.2 0.7 0
11.6 0.7 0
12 0.7 0
12.4 0.7 0
12.8 0.7 0
13.2 0.7 0
13.6 0.7 0
14 0.7 0
14.4 0.7 0
14.8 0.7 0
15.2 0.7 0
15.6 0.7 0
16 0.7 0
16.4 0.7 0
16.8 0.7 0
17.2 0.7 0
17.6 0.7 0
18 0.7 0
18.4 0.7 0
18.8 0.7 0
19.2 0.7 0
19.6 0.7 0
20 0.7 0
20.4 0.7 0
20.8 0.7 0
21.2 0.7 0
21.6 0.7 0
22 0.7 0
22.4 0.7 0
22.8 0.7 0
23.2 0.7 0
23.6 0.7 0
24 0.7 0
24.4 0.7 0
24.8 0.7 0
25.2 0.7 0
25.6 0.7 0
26 0.7 0
26.4 0.7 0
26.8 0.7 0
27.2 0.7 0
27.6 0.7 0
28 0.7 0
28.4 0.7 0
28.8 0.7 0
29.2 0.7 0
29.6 0.7 0
30 0.7 0
30.4 0.7 0
30.8 0.7 0
31.2 0.7 0
31.6 0.7 0
32 0.7 0
32.4 0.7 0
32.8 0.7 0
33.2 0.7 0
33.6 0.7 0
34 0.7 0
34.4 0.7 0
34.8 0.7 0
35.2 0.7 0
35.6 0.7 0
36 0.7 0
36.4 0.7 0
36.8 0.7 0
37.2 0.7 0
37.6 0.7 0
38 0.7 0
38.4 0.7 0
38.8 0.7 0
39.2 0.7 0
39.6 0.7 0
40 0.7 0
40.4 0.7 0
0 0.8 0
0.4 0.8 0
0.8 0.8 0
1.2 0.8 0
1.6 0.8 0
2 0.8 0
2.4 0.8 0
2.8 0.8 0
3.2 0.8 0
3.6 0.8 0
4 0.8 0
4.4 0.8 0
4.8 0.8 0
5.2 0.8 0
5.6 0.8 0
6 0.8 0
6.4 0.8 0
6.8 0.8 0
7.2 0.8 0
7.6 0.8 0
8 0.8 0
8.4 0.8 0
8.8 0.8 0
9.2 0.8 0
9.6 0.8 0
10 0.8 0
10.4 0.8 0
10.8 0.8 0
11.2 0.8 0
11.6 0.8 0
12 0.8 0
12.4 0.8 0
12.8 0.8 0
13.2 0.8 0
13.6 0.8 0
14 0.8 0
14.4 0.8 0
14.8 0.8 0
15.2 0.8 0
15.6 0.8 0
16 0.8 0
16.4 0.8 0
16.8 0.8 0
17.2 0.8 0
17.6 0.8 0
18 0.8 0
18.4 0.8 0
18.8 0.8 0
19.2 0.8 0
19.6 0.8 0
20 0.8 0
20.4 0.8 0
20.8 0.8 0
21.2 0.8 0
21.6 0.8 0
22 0.8 0
22.4 0.8 0
22.8 0.8 0
23.2 0.8 0
23.6 0.8 0
24 0.8 0
24.4 0.8 0
24.8 0.8 0
25.2 0.8 0
25.6 0.8 0
26 0.8 0
26.4 0.8 0
26.8 0.8 0
27.2 0.8 0
27.6 0.8 0
28 0.8 0
28.4 0.8 0
28.8 0.8 0
29.2 0.8 0
29.6 0.8 0
30 0.8 0
30.4 0.8 0
30.8 0.8 0
31.2 0.8 0
31.6 0.8 0
32 0.8 0
32.4 0.8 0
32.8 0.8 0
33.2 0.8 0
33.6 0.8 0
34 0.8 0
34.4 0.8 0
34.8 0.8 0
35.2 0.8 0
35.6 0.8 0
36 0.8 0
36.4 0.8 0
36.8 0.8 0
37.2 0.8 0
37.6 0.8 0
38 0.8 0
38.4 0.8 0
38.8 0.8 0
39.2 0.8 0
39.6 0.8 0
40 0.8 0
40.4 0.8 0
0 0.9 0
0.4 0.9 0
0.8 0.9 0
1.2 0.9 0
1.6 0.9 0
2 0.9 0
2.4 0.9 0
2.8 0.9 0
3.2 0.9 0
3.6 0.9 0
4 0.9 0
4.4 0.9 0
4.8 0.9 0
5.2 0.9 0
5.6 0.9 0
6 0.9 0
6.4 0.9 0
6.8 0.9 0
7.2 0.9 0
7.6 0.9 0
8 0.9 0
8.4 0.9 0
8.8 0.9 0
9.2 0.9 0
9.6 0.9 0
10 0.9 0
10.4 0.9 0
10.8 0.9 0
11.2 0.9 0
11.6 0.9 0
12 0.9 0
12.4 0.9 0
12.8 0.9 0
13.2 0.9 0
13.6 0.9 0
14 0.9 0
14.4 0.9 0
14.8 0.9 0
15.2 0.9 0
15.6 0.9 0
16 0.9 0
16.4 0.9 0
16.8 0.9 0
17.2 0.9 0
17.6 0.9 0
18 0.9 0
18.4 0.9 0
18.8 0.9 0
19.2 0.9 0
19.6 0.9 0
20 0.9 0
20.4 0.9 0
20.8 0.9 0
21.2 0.9 0
21.6 0.9 0
22 0.9 0
22.4 0.9 0
22.8 0.9 0
23.2 0.9 0
23.6 0.9 0
24 0.9 0
24.4 0.9 0
24.8 0.9 0
25.2 0.9 0
25.6 0.9 0
26 0.9 0
26.4 0.9 0
26.8 0.9 0
27.2 0.9 0
27.6 0.9 0
28 0.9 0
28.4 0.9 0
28.8 0.9 0
29.2 0.9 0
29.6 0.9 0
30 0.9 0
30.4 0.9 0
30.8 0.9 0
31.2 0.9 0
31.6 0.9 0
32 0.9 0
32.4 0.9 0
32.8 0.9 0
33.2 0.9 0
33.6 0.9 0
34 0.9 0
34.4 0.9 0
34.8 0.9 0
35.2 0.9 0
35.6 0.9 0
36 0.9 0
36.4 0.9 0
36.8 0.9 0
37.2 0.9 0
37.6 0.9 0
38 0.9 0
38.4 0.9 0
38.8 0.9 0
39.2 0.9 0
39.6 0.9 0
40 0.9 0
40.4 0.9 0
0 1 0
0.4 1 0
0.8 1 0
1.2 1 0
1.6 1 0
2 1 0
2.4 1 0
2.8 1 0
3.2 1 0
3.6 1 0
4 1 0
4.4 1 0
4.8 1 0
5.2 1 0
5.6 1 0
6 1 0
6.4 1 0
6.8 1 0
7.2 1 0
7.6 1 0
8 1 0
8.4 1 0
8.8 1 0
9.2 1 0
9.6 1 0
10 1 0
10.4 1 0
10.8 1 0
11.2 1 0
11.6 1 0
12 1 0
12.4 1 0
12.8 1 0
13.2 1 0
13.6 1 0
14 1 0
14.4 1 0
14.8 1 0
15.2 1 0
15.6 1 0
16 1 0
16.4 1 0
16.8 1 0
17.2 1 0
17.6 1 0
18 1 0
18.4 1 0
18.8 1 0
19.2 1 0
19.6 1 0
20 1 0
20.4 1 0
20.8 1 0
21.2 1 0
21.6 1 0
22 1 0
22.4 1 0
22.8 1 0
23.2 1 0
23.6 1 0
24 1 0
24.4 1 0
24.8 1 0
25.2 1 0
25.6 1 0
26 1 0
26.4 1 0
26.8 1 0
27.2 1 0
27.6 1 0
28 1 0
28.4 1 0
28.8 1 0
29.2 1 0
29.6 1 0
30 1 0
30.4 1 0
30.8 1 0
31.2 1 0
31.6 1 0
32 1 0
32.4 1 0
32.8 1 0
33.2 1 0
33.6 1 0
34 1 0
34.4 1 0
34.8 1 0
35.2 1 0
35.6 1 0
36 1 0
36.4 1 0
36.8 1 0
37.2 1 0
37.6 1 0
38 1 0
38.4 1 0
38.8 1 0
39.2 1 0
39.6 1 0
40 1 0
40.4 1 0
0 1.1 0
0.4 1.1 0
0.8 1.1 0
1.2 1.1 0
1.6 1.1 0
2 1.1 0
2.4 1.1 0
2.8 1.1 0
3.2 1.1 0
3.6 1.1 0
4 1.1 0
4.4 1.1 0
4.8 1.1 0
5.2 1.1 0
5.6 1.1 0
6 1.1 0
6.4 1.1 0
6.8 1.1 0
7.2 1.1 0
7.6 1.1 0
8 1.1 0
8.4 1.1 0
8.8 1.1 0
9.2 1.1 0
9.6 1.1 0
10 1.1 0
10.4 1.1 0
10.8 1.1 0
11.2 1.1 0
11.6 1.1 0
12 1.1 0
12.4 1.1 0
12.8 1.1 0
13.2 1.1 0
13.6 1.1 0
14 1.1 0
14.4 1.1 0
14.8 1.1 0
15.2 1.1 0
15.6 1.1 0
16 1.1 0
16.4 1.1 0
16.8 1.1 0
17.2 1.1 0
17.6 1.1 0
18 1.1 0
18.4 1.1 0
18.8 1.1 0
19.2 1.1 0
19.6 1.1 0
20 1.1 0
20.4 1.1 0
20.8 1.1 0
21.2 1.1 0
21.6 1.1 0
22 1.1 0
22.4 1.1 0
22.8 1.1 0
23.2 1.1 0
23.6 1.1 0
24 1.1 0
24.4 1.1 0
24.8 1.1 0
25.2 1.1 0
25.6 1.1 0
26 1.1 0
26.4 1.1 0
26.8 1.1 0
27.2 1.1 0
27.6 1.1 0
28 1.1 0
28.4 1.1 0
28.8 1.1 0
29.2 1.1 0
29.6 1.1 0
30 1.1 0
30.4 1.1 0
30.8 1.1 0
31.2 1.1 0
31.6 1.1 0
32 1.1 0
32.4 1.1 0
32.8 1.1 0
33.2 1.1 0
33.6 1.1 0
34 1.1 0
34.4 1.1 0
34.8 1.1 0
35.2 1.1 0
35.6 1.1 0
36 1.1 0
36.4 1.1 0
36.8 1.1 0
37.2 1.1 0
37.6 1.1 0
38 1.1 0
38.4 1.1 0
38.8 1.1 0
39.2 1.1 0
39.6 1.1 0
40 1.1 0
40.4 1.1 0

POINT_DATA 1224

SCALARS v double
LOOKUP_TABLE default
0
0
0
0
0
0
0
0
0
0
0
0
0
0
0
0
0
0
0
0
0
0
0
0
0
0
0
0
0
0
0
0
0
0
0
0
0
0
0
0
0
0
0
0
0
0
0
0
0
0
0
0
0
0
0
0
0
0
0
0
0
0
0
0
0
0
0
0
0
0
0
0
0
0
0
0
0
0
0
0
0
0
0
0
0
0
0
0
0
0
0
0
0
0
0
0
0
0
0
0
0
0
0
0.0787076
0.0554407
0.0327104
0.0178114
0.00965831
0.00557771
0.00354712
0.00247033
0.00183778
0.00142579
0.00113505
0.000918549
0.000751704
0.000620159
0.000514623
0.000428558
0.000357118
0.000296678
0.000244629
0.000199249
0.000159551
0.000125071
9.56321e-05
7.11232e-05
5.13415e-05
3.59211e-05
2.43366e-05
1.59588e-05
1.01278e-05
6.22158e-06
3.70168e-06
2.13547e-06
1.19698e-06
6.54507e-07
3.51865e-07
1.8881e-07
1.03917e-07
6.11625e-08
4.0294e-08
3.03712e-08
2.57169e-08
2.35103e-08
2.23794e-08
2.1691e-08
2.11719e-08
2.07116e-08
2.02689e-08
1.98296e-08
1.93896e-08
1.89483e-08
1.85059e-08
1.80628e-08
1.76194e-08
1.7176e-08
1.67328e-08
1.62899e-08
1.58473e-08
1.5405e-08
1.49631e-08
1.45214e-08
1.40801e-08
1.3639e-08
1.31982e-08
1.27577e-08
1.23176e-08
1.18778e-08
1.14384e-08
1.09994e-08
1.05609e-08
1.01228e-08
9.68502e-09
9.24754e-09
8.81025e-09
8.37307e-09
7.9359e-09
7.49876e-09
7.06164e-09
6.62461e-09
6.18783e-09
5.75135e-09
5.31559e-09
4.88145e-09
4.45017e-09
4.02332e-09
3.60143e-09
3.18595e-09
2.7786e-09
2.38777e-09
1.99421e-09
1.67883e-09
1.16345e-09
1.44039e-09
-9.21237e-10
4.49714e-09
-1.75627e-08
4.34226e-08
-1.81422e-07
2.57469e-07
-9.55779e-07
-2.84365e-06
-2.84365e-06
0
0.0668416
0.060839
0.042293
0.0271276
0.0175004
0.0118522
0.00849211
0.00637033
0.00493627
0.00391073
0.00314661
0.0025606
0.00210175
0.00173666
0.00144204
0.00120079
0.000999957
0.000829773
0.000683179
0.000555502
0.000444035
0.00034747
0.000265247
0.000196969
0.000141986
9.92101e-05
6.71283e-05
4.39594e-05
2.78539e-05
1.70767e-05
1.0132e-05
5.82025e-06
3.23969e-06
1.75006e-06
9.20326e-07
4.74195e-07
2.42581e-07
1.2645e-07
7.02037e-08
4.38589e-08
3.1882e-08
2.65628e-08
2.41665e-08
2.29758e-08
2.22497e-08
2.16889e-08
2.11806e-08
2.06857e-08
2.01922e-08
1.96972e-08
1.9201e-08
1.87042e-08
1.82075e-08
1.77115e-08
1.72165e-08
1.67226e-08
1.62299e-08
1.57383e-08
1.52478e-08
1.47583e-08
1.42697e-08
1.3782e-08
1.32952e-08
1.28094e-08
1.23246e-08
1.18411e-08
1.13589e-08
1.08782e-08
1.03991e-08
9.9217e-09
9.44594e-09
8.97181e-09
8.49925e-09
8.02822e-09
7.55865e-09
7.09073e-09
6.62454e-09
6.16023e-09
5.6981e-09
5.23796e-09
4.78028e-09
4.32627e-09
3.87755e-09
3.43627e-09
3.00241e-09
2.57697e-09
2.16249e-09
1.76774e-09
1.36487e-09
1.06823e-09
4.84141e-10
9.71048e-10
-2.59928e-09
7.08488e-09
-3.28213e-08
8.2195e-08
-3.80832e-07
6.3209e-07
-4.78014e-06
-8.1221e-06
-8.1221e-06
0
0.0434614
0.0450425
0.0342517
0.0238914
0.0167607
0.0122648
0.00937334
0.00739331
0.00595019
0.00484984
0.00398637
0.00329648
0.00273867
0.00228356
0.00190907
0.00159783
0.00133591
0.00111229
0.000918721
0.000749574
0.000601491
0.000472804
0.000362795
0.000270987
0.00019661
0.000138342
9.43048e-05
6.2239e-05
3.97546e-05
2.4573e-05
1.46995e-05
8.51202e-06
4.77369e-06
2.59518e-06
1.37015e-06
7.05185e-07
3.56683e-07
1.80318e-07
9.4149e-08
5.34937e-08
3.49423e-08
2.6755e-08
2.31719e-08
2.1512e-08
2.06052e-08
1.99726e-08
1.94312e-08
1.89163e-08
1.8407e-08
1.78977e-08
1.73879e-08
1.68783e-08
1.63698e-08
1.58632e-08
1.53588e-08
1.48568e-08
1.43573e-08
1.38602e-08
1.33653e-08
1.28726e-08
1.23818e-08
1.1893e-08
1.1406e-08
1.0921e-08
1.04381e-08
9.95761e-09
9.47964e-09
9.00447e-09
8.53231e-09
8.06329e-09
7.59749e-09
7.13496e-09
6.67569e-09
6.21973e-09
5.76709e-09
5.31814e-09
4.87313e-09
4.43235e-09
3.99628e-09
3.5645e-09
3.13752e-09
2.71672e-09
2.30356e-09
1.89984e-09
1.50651e-09
1.12475e-09
7.58597e-10
4.12027e-10
5.48135e-11
-2.18474e-10
-6.95567e-10
-2.20254e-10
-3.56764e-09
6.51753e-09
-3.57386e-08
9.40907e-08
-4.56006e-07
9.00791e-07
-7.29557e-06
-1.07581e-05
-1.07581e-05
0
0.0210569
0.0230875
0.0183629
0.0133674
0.00978216
0.00744491
0.00588657
0.00477602
0.00393346
0.0032668
0.00272645
0.00228266
0.00191542
0.00160995
0.00135457
0.00113956
0.000956792
0.000799561
0.000662705
0.000542615
0.000437109
0.000345092
0.00026611
0.000199875
0.000145911
0.000103361
7.09722e-05
4.7204e-05
3.0399e-05
1.89524e-05
1.14398e-05
6.687e-06
3.78725e-06
2.08028e-06
1.11035e-06
5.78135e-07
2.96029e-07
1.5155e-07
8.00769e-08
4.59113e-08
3.00904e-08
2.30256e-08
1.98934e-08
1.84087e-08
1.75675e-08
1.69599e-08
1.64308e-08
1.59256e-08
1.5427e-08
1.49302e-08
1.44345e-08
1.39407e-08
1.34495e-08
1.29614e-08
1.24771e-08
1.19965e-08
1.15197e-08
1.10466e-08
1.0577e-08
1.01106e-08
9.64741e-09
9.1872e-09
8.72994e-09
8.27571e-09
7.82463e-09
7.37695e-09
6.93291e-09
6.49278e-09
6.0568e-09
5.62515e-09
5.19796e-09
4.77536e-09
4.35741e-09
3.94428e-09
3.53613e-09
3.13341e-09
2.73672e-09
2.34665e-09
1.96395e-09
1.58786e-09
1.21868e-09
8.57959e-10
5.0723e-10
1.63876e-10
-1.70585e-10
-4.84536e-10
-7.78524e-10
-1.0518e-09
-1.30939e-09
-1.49688e-09
-1.80873e-09
-1.50443e-09
-3.56936e-09
3.01457e-09
-2.44398e-08
6.42721e-08
-3.15417e-07
6.8793e-07
-5.41765e-06
-7.65787e-06
-7.65787e-06
0
3.32202e-08
4.96969e-08
5.34239e-08
5.18443e-08
4.97756e-08
4.88045e-08
4.88308e-08
4.9264e-08
4.94923e-08
4.89969e-08
4.73864e-08
4.44633e-08
4.03204e-08
3.53855e-08
3.03292e-08
2.58381e-08
2.23705e-08
2.00324e-08
1.86355e-08
1.78694e-08
1.74677e-08
1.72817e-08
1.7259e-08
1.73853e-08
1.764e-08
1.7982e-08
1.83525e-08
1.86851e-08
1.89227e-08
1.90378e-08
1.90374e-08
1.89457e-08
1.8777e-08
1.85253e-08
1.81724e-08
1.7708e-08
1.71529e-08
1.65792e-08
1.61151e-08
1.5779e-08
1.54557e-08
1.52138e-08
1.49624e-08
1.46441e-08
1.42588e-08
1.38279e-08
1.33733e-08
1.29092e-08
1.2443e-08
1.1978e-08
1.15157e-08
1.10569e-08
1.06023e-08
1.01522e-08
9.70691e-09
9.26646e-09
8.83075e-09
8.39958e-09
7.97273e-09
7.54997e-09
7.13109e-09
6.71594e-09
6.30446e-09
5.89668e-09
5.49272e-09
5.09275e-09
4.69701e-09
4.30572e-09
3.91909e-09
3.5373e-09
3.1605e-09
2.78884e-09
2.42251e-09
2.06171e-09
1.70685e-09
1.35822e-09
1.01699e-09
6.85077e-10
3.62929e-10
4.90102e-11
-2.56927e-10
-5.53905e-10
-8.40247e-10
-1.11156e-09
-1.36538e-09
-1.60381e-09
-1.82501e-09
-2.02634e-09
-2.19807e-09
-2.33374e-09
-2.44298e-09
-2.50822e-09
-2.58323e-09
-2.50454e-09
-2.50314e-09
-2.3438e-09
-2.26018e-09
-1.93569e-09
-1.73357e-09
-6.03406e-10
-6.03406e-10
0
-0.0210569
-0.0230874
-0.0183628
-0.0133673
-0.00978207
-0.00744482
-0.00588648
-0.00477593
-0.00393336
-0.00326671
-0.00272636
-0.00228258
-0.00191534
-0.00160988
-0.00135451
-0.00113951
-0.000956747
-0.000799521
-0.000662667
-0.000542579
-0.000437073
-0.000345057
-0.000266074
-0.000199839
-0.000145874
-0.000103324
-7.09343e-05
-4.71656e-05
-3.03601e-05
-1.89134e-05
-1.14008e-05
-6.6482e-06
-3.74881e-06
-2.04235e-06
-1.07311e-06
-5.41796e-07
-2.60783e-07
-1.17466e-07
-4.6924e-08
-1.33091e-08
2.08173e-09
8.57939e-09
1.10448e-08
1.17797e-08
1.17951e-08
1.15227e-08
1.11429e-08
1.07281e-08
1.03052e-08
9.8832e-09
9.46509e-09
9.05176e-09
8.64354e-09
8.24059e-09
7.84289e-09
7.45034e-09
7.06272e-09
6.67977e-09
6.30122e-09
5.92681e-09
5.55632e-09
5.1896e-09
4.82657e-09
4.46723e-09
4.11165e-09
3.75997e-09
3.41233e-09
3.06889e-09
2.7298e-09
2.3952e-09
2.06521e-09
1.74002e-09
1.41984e-09
1.1049e-09
7.95875e-10
4.92502e-10
1.96432e-10
-8.24683e-11
-3.51857e-10
-6.13843e-10
-8.69315e-10
-1.11756e-09
-1.35608e-09
-1.57787e-09
-1.78052e-09
-1.96936e-09
-2.14232e-09
-2.29904e-09
-2.41352e-09
-2.54202e-09
-2.45701e-09
-2.99601e-09
-9.85348e-10
-7.65395e-09
1.9987e-08
-6.86468e-08
3.11362e-07
-6.91547e-07
5.41448e-06
7.65674e-06
7.65674e-06
0
-0.0434614
-0.0450424
-0.0342516
-0.0238913
-0.0167606
-0.0122647
-0.00937326
-0.00739323
-0.00595011
-0.00484976
-0.00398629
-0.00329641
-0.0027386
-0.0022835
-0.00190902
-0.00159779
-0.00133586
-0.00111225
-0.000918681
-0.000749535
-0.000601452
-0.000472765
-0.000362756
-0.000270947
-0.00019657
-0.000138301
-9.42638e-05
-6.21976e-05
-3.9713e-05
-2.45313e-05
-1.46581e-05
-8.47085e-06
-4.73293e-06
-2.55495e-06
-1.33057e-06
-6.66421e-07
-3.18926e-07
-1.43706e-07
-5.84623e-08
-1.82385e-08
6.00694e-11
7.57218e-09
1.02503e-08
1.10075e-08
1.10262e-08
1.07714e-08
1.04224e-08
1.00456e-08
9.66407e-09
9.28492e-09
8.91013e-09
8.54018e-09
8.17513e-09
7.8149e-09
7.45936e-09
7.10825e-09
6.76131e-09
6.41824e-09
6.07876e-09
5.74264e-09
5.40968e-09
5.07973e-09
4.75273e-09
4.42866e-09
4.10756e-09
3.78949e-09
3.47454e-09
3.16278e-09
2.85429e-09
2.54913e-09
2.24743e-09
1.94932e-09
1.65499e-09
1.36469e-09
1.07892e-09
7.97879e-10
5.22631e-10
2.52286e-10
3.7323e-12
-2.31957e-10
-4.66406e-10
-6.97561e-10
-9.21939e-10
-1.13231e-09
-1.32196e-09
-1.49891e-09
-1.6623e-09
-1.81643e-09
-1.91869e-09
-2.08555e-09
-1.88238e-09
-2.81187e-09
5.0448e-10
-9.90887e-09
3.2585e-08
-9.74175e-08
4.53033e-07
-9.03607e-07
7.29322e-06
1.07571e-05
1.07571e-05
0
-0.0668415
-0.0608389
-0.0422929
-0.0271275
-0.0175004
-0.0118521
-0.00849204
-0.00637027
-0.0049362
-0.00391067
-0.00314655
-0.00256054
-0.00210169
-0.00173661
-0.00144199
-0.00120074
-0.000999912
-0.000829729
-0.000683136
-0.000555459
-0.000443992
-0.000347426
-0.000265203
-0.000196925
-0.000141942
-9.91654e-05
-6.70834e-05
-4.39144e-05
-2.7809e-05
-1.7032e-05
-1.00875e-05
-5.77615e-06
-3.19605e-06
-1.70694e-06
-8.77791e-07
-4.32318e-07
-2.01465e-07
-8.6262e-08
-3.08572e-08
-4.67226e-09
6.7267e-09
1.0953e-08
1.23249e-08
1.25923e-08
1.24478e-08
1.21553e-08
1.18136e-08
1.14584e-08
1.11018e-08
1.07474e-08
1.03963e-08
1.00485e-08
9.70406e-09
9.36287e-09
9.02472e-09
8.6894e-09
8.35667e-09
8.02631e-09
7.6981e-09
7.37188e-09
7.04752e-09
6.72492e-09
6.40405e-09
6.08487e-09
5.7674e-09
5.45166e-09
5.13766e-09
4.82542e-09
4.51496e-09
4.20629e-09
3.89945e-09
3.59451e-09
3.29159e-09
2.99083e-09
2.69252e-09
2.39698e-09
2.10439e-09
1.81424e-09
1.53046e-09
1.25539e-09
9.86499e-10
7.22425e-10
4.64809e-10
2.16255e-10
1.37745e-12
-2.00131e-10
-3.9931e-10
-5.98842e-10
-7.48305e-10
-9.83835e-10
-8.13638e-10
-1.86573e-09
1.46094e-09
-8.63301e-09
3.12933e-08
-8.40364e-08
3.79186e-07
-6.33822e-07
4.77878e-06
8.12137e-06
8.12137e-06
0
-0.0787075
-0.0554406
-0.0327103
-0.0178113
-0.00965825
-0.00557766
-0.00354707
-0.00247028
-0.00183773
-0.00142574
-0.001135
-0.000918498
-0.000751654
-0.00062011
-0.000514575
-0.00042851
-0.00035707
-0.000296631
-0.000244582
-0.000199202
-0.000159503
-0.000125023
-9.55841e-05
-7.10751e-05
-5.12935e-05
-3.5873e-05
-2.42887e-05
-1.59109e-05
-1.00802e-05
-6.17424e-06
-3.65471e-06
-2.08891e-06
-1.15088e-06
-6.08914e-07
-3.06806e-07
-1.44287e-07
-5.98542e-08
-1.72804e-08
3.45648e-09
1.19936e-08
1.54131e-08
1.66434e-08
1.68919e-08
1.67474e-08
1.6454e-08
1.61058e-08
1.57383e-08
1.53648e-08
1.499e-08
1.46155e-08
1.42419e-08
1.38693e-08
1.34979e-08
1.31275e-08
1.27582e-08
1.23899e-08
1.20225e-08
1.16559e-08
1.129e-08
1.09248e-08
1.05603e-08
1.01963e-08
9.83296e-09
9.47013e-09
9.10783e-09
8.74607e-09
8.38483e-09
8.02408e-09
7.6638e-09
7.30394e-09
6.94447e-09
6.58537e-09
6.22661e-09
5.8682e-09
5.51019e-09
5.15273e-09
4.79577e-09
4.43917e-09
4.08343e-09
3.73122e-09
3.38227e-09
3.03624e-09
2.69426e-09
2.35781e-09
2.03254e-09
1.71857e-09
1.41489e-09
1.11869e-09
8.52353e-10
5.5902e-10
4.54488e-10
-1.74216e-10
1.46849e-09
-4.24146e-09
1.74305e-08
-4.3851e-08
1.80886e-07
-2.58221e-07
9.55148e-07
2.8431e-06
2.8431e-06
0
0
0
0
0
0
0
0
0
0
0
0
0
0
0
0
0
0
0
0
0
0
0
0
0
0
0
0
0
0
0
0
0
0
0
0
0
0
0
0
0
0
0
0
0
0
0
0
0
0
0
0
0
0
0
0
0
0
0
0
0
0
0
0
0
0
0
0
0
0
0
0
0
0
0
0
0
0
0
0
0
0
0
0
0
0
0
0
0
0
0
0
0
0
0
0
0
0
0
0
0
0
0
0
0
0
0
0
0
0
0
0
0
0
0
0
0
0
0
0
0
0
0
0
0
0
0
0
0
0
0
0
0
0
0
0
0
0
0
0
0
0
0
0
0
0
0
0
0
0
0
0
0
0
0
0
0
0
0
0
0
0
0
0
0
0
0
0
0
0
0
0
0
0
0
0
0
0
0
0
0
0
0
0
0
0
0
0
0
0
0
0
0
0
0
0
0
0
0
0
0
0
0
0
