# vtk DataFile Version 2.0
FlowField
ASCII
DATASET STRUCTURED_GRID
DIMENSIONS 102 12 1 
POINTS 1224 double
0 0 0
0.3 0 0
0.6 0 0
0.9 0 0
1.2 0 0
1.5 0 0
1.8 0 0
2.1 0 0
2.4 0 0
2.7 0 0
3 0 0
3.3 0 0
3.6 0 0
3.9 0 0
4.2 0 0
4.5 0 0
4.8 0 0
5.1 0 0
5.4 0 0
5.7 0 0
6 0 0
6.3 0 0
6.6 0 0
6.9 0 0
7.2 0 0
7.5 0 0
7.8 0 0
8.1 0 0
8.4 0 0
8.7 0 0
9 0 0
9.3 0 0
9.6 0 0
9.9 0 0
10.2 0 0
10.5 0 0
10.8 0 0
11.1 0 0
11.4 0 0
11.7 0 0
12 0 0
12.3 0 0
12.6 0 0
12.9 0 0
13.2 0 0
13.5 0 0
13.8 0 0
14.1 0 0
14.4 0 0
14.7 0 0
15 0 0
15.3 0 0
15.6 0 0
15.9 0 0
16.2 0 0
16.5 0 0
16.8 0 0
17.1 0 0
17.4 0 0
17.7 0 0
18 0 0
18.3 0 0
18.6 0 0
18.9 0 0
19.2 0 0
19.5 0 0
19.8 0 0
20.1 0 0
20.4 0 0
20.7 0 0
21 0 0
21.3 0 0
21.6 0 0
21.9 0 0
22.2 0 0
22.5 0 0
22.8 0 0
23.1 0 0
23.4 0 0
23.7 0 0
24 0 0
24.3 0 0
24.6 0 0
24.9 0 0
25.2 0 0
25.5 0 0
25.8 0 0
26.1 0 0
26.4 0 0
26.7 0 0
27 0 0
27.3 0 0
27.6 0 0
27.9 0 0
28.2 0 0
28.5 0 0
28.8 0 0
29.1 0 0
29.4 0 0
29.7 0 0
30 0 0
30.3 0 0
0 0.1 0
0.3 0.1 0
0.6 0.1 0
0.9 0.1 0
1.2 0.1 0
1.5 0.1 0
1.8 0.1 0
2.1 0.1 0
2.4 0.1 0
2.7 0.1 0
3 0.1 0
3.3 0.1 0
3.6 0.1 0
3.9 0.1 0
4.2 0.1 0
4.5 0.1 0
4.8 0.1 0
5.1 0.1 0
5.4 0.1 0
5.7 0.1 0
6 0.1 0
6.3 0.1 0
6.6 0.1 0
6.9 0.1 0
7.2 0.1 0
7.5 0.1 0
7.8 0.1 0
8.1 0.1 0
8.4 0.1 0
8.7 0.1 0
9 0.1 0
9.3 0.1 0
9.6 0.1 0
9.9 0.1 0
10.2 0.1 0
10.5 0.1 0
10.8 0.1 0
11.1 0.1 0
11.4 0.1 0
11.7 0.1 0
12 0.1 0
12.3 0.1 0
12.6 0.1 0
12.9 0.1 0
13.2 0.1 0
13.5 0.1 0
13.8 0.1 0
14.1 0.1 0
14.4 0.1 0
14.7 0.1 0
15 0.1 0
15.3 0.1 0
15.6 0.1 0
15.9 0.1 0
16.2 0.1 0
16.5 0.1 0
16.8 0.1 0
17.1 0.1 0
17.4 0.1 0
17.7 0.1 0
18 0.1 0
18.3 0.1 0
18.6 0.1 0
18.9 0.1 0
19.2 0.1 0
19.5 0.1 0
19.8 0.1 0
20.1 0.1 0
20.4 0.1 0
20.7 0.1 0
21 0.1 0
21.3 0.1 0
21.6 0.1 0
21.9 0.1 0
22.2 0.1 0
22.5 0.1 0
22.8 0.1 0
23.1 0.1 0
23.4 0.1 0
23.7 0.1 0
24 0.1 0
24.3 0.1 0
24.6 0.1 0
24.9 0.1 0
25.2 0.1 0
25.5 0.1 0
25.8 0.1 0
26.1 0.1 0
26.4 0.1 0
26.7 0.1 0
27 0.1 0
27.3 0.1 0
27.6 0.1 0
27.9 0.1 0
28.2 0.1 0
28.5 0.1 0
28.8 0.1 0
29.1 0.1 0
29.4 0.1 0
29.7 0.1 0
30 0.1 0
30.3 0.1 0
0 0.2 0
0.3 0.2 0
0.6 0.2 0
0.9 0.2 0
1.2 0.2 0
1.5 0.2 0
1.8 0.2 0
2.1 0.2 0
2.4 0.2 0
2.7 0.2 0
3 0.2 0
3.3 0.2 0
3.6 0.2 0
3.9 0.2 0
4.2 0.2 0
4.5 0.2 0
4.8 0.2 0
5.1 0.2 0
5.4 0.2 0
5.7 0.2 0
6 0.2 0
6.3 0.2 0
6.6 0.2 0
6.9 0.2 0
7.2 0.2 0
7.5 0.2 0
7.8 0.2 0
8.1 0.2 0
8.4 0.2 0
8.7 0.2 0
9 0.2 0
9.3 0.2 0
9.6 0.2 0
9.9 0.2 0
10.2 0.2 0
10.5 0.2 0
10.8 0.2 0
11.1 0.2 0
11.4 0.2 0
11.7 0.2 0
12 0.2 0
12.3 0.2 0
12.6 0.2 0
12.9 0.2 0
13.2 0.2 0
13.5 0.2 0
13.8 0.2 0
14.1 0.2 0
14.4 0.2 0
14.7 0.2 0
15 0.2 0
15.3 0.2 0
15.6 0.2 0
15.9 0.2 0
16.2 0.2 0
16.5 0.2 0
16.8 0.2 0
17.1 0.2 0
17.4 0.2 0
17.7 0.2 0
18 0.2 0
18.3 0.2 0
18.6 0.2 0
18.9 0.2 0
19.2 0.2 0
19.5 0.2 0
19.8 0.2 0
20.1 0.2 0
20.4 0.2 0
20.7 0.2 0
21 0.2 0
21.3 0.2 0
21.6 0.2 0
21.9 0.2 0
22.2 0.2 0
22.5 0.2 0
22.8 0.2 0
23.1 0.2 0
23.4 0.2 0
23.7 0.2 0
24 0.2 0
24.3 0.2 0
24.6 0.2 0
24.9 0.2 0
25.2 0.2 0
25.5 0.2 0
25.8 0.2 0
26.1 0.2 0
26.4 0.2 0
26.7 0.2 0
27 0.2 0
27.3 0.2 0
27.6 0.2 0
27.9 0.2 0
28.2 0.2 0
28.5 0.2 0
28.8 0.2 0
29.1 0.2 0
29.4 0.2 0
29.7 0.2 0
30 0.2 0
30.3 0.2 0
0 0.3 0
0.3 0.3 0
0.6 0.3 0
0.9 0.3 0
1.2 0.3 0
1.5 0.3 0
1.8 0.3 0
2.1 0.3 0
2.4 0.3 0
2.7 0.3 0
3 0.3 0
3.3 0.3 0
3.6 0.3 0
3.9 0.3 0
4.2 0.3 0
4.5 0.3 0
4.8 0.3 0
5.1 0.3 0
5.4 0.3 0
5.7 0.3 0
6 0.3 0
6.3 0.3 0
6.6 0.3 0
6.9 0.3 0
7.2 0.3 0
7.5 0.3 0
7.8 0.3 0
8.1 0.3 0
8.4 0.3 0
8.7 0.3 0
9 0.3 0
9.3 0.3 0
9.6 0.3 0
9.9 0.3 0
10.2 0.3 0
10.5 0.3 0
10.8 0.3 0
11.1 0.3 0
11.4 0.3 0
11.7 0.3 0
12 0.3 0
12.3 0.3 0
12.6 0.3 0
12.9 0.3 0
13.2 0.3 0
13.5 0.3 0
13.8 0.3 0
14.1 0.3 0
14.4 0.3 0
14.7 0.3 0
15 0.3 0
15.3 0.3 0
15.6 0.3 0
15.9 0.3 0
16.2 0.3 0
16.5 0.3 0
16.8 0.3 0
17.1 0.3 0
17.4 0.3 0
17.7 0.3 0
18 0.3 0
18.3 0.3 0
18.6 0.3 0
18.9 0.3 0
19.2 0.3 0
19.5 0.3 0
19.8 0.3 0
20.1 0.3 0
20.4 0.3 0
20.7 0.3 0
21 0.3 0
21.3 0.3 0
21.6 0.3 0
21.9 0.3 0
22.2 0.3 0
22.5 0.3 0
22.8 0.3 0
23.1 0.3 0
23.4 0.3 0
23.7 0.3 0
24 0.3 0
24.3 0.3 0
24.6 0.3 0
24.9 0.3 0
25.2 0.3 0
25.5 0.3 0
25.8 0.3 0
26.1 0.3 0
26.4 0.3 0
26.7 0.3 0
27 0.3 0
27.3 0.3 0
27.6 0.3 0
27.9 0.3 0
28.2 0.3 0
28.5 0.3 0
28.8 0.3 0
29.1 0.3 0
29.4 0.3 0
29.7 0.3 0
30 0.3 0
30.3 0.3 0
0 0.4 0
0.3 0.4 0
0.6 0.4 0
0.9 0.4 0
1.2 0.4 0
1.5 0.4 0
1.8 0.4 0
2.1 0.4 0
2.4 0.4 0
2.7 0.4 0
3 0.4 0
3.3 0.4 0
3.6 0.4 0
3.9 0.4 0
4.2 0.4 0
4.5 0.4 0
4.8 0.4 0
5.1 0.4 0
5.4 0.4 0
5.7 0.4 0
6 0.4 0
6.3 0.4 0
6.6 0.4 0
6.9 0.4 0
7.2 0.4 0
7.5 0.4 0
7.8 0.4 0
8.1 0.4 0
8.4 0.4 0
8.7 0.4 0
9 0.4 0
9.3 0.4 0
9.6 0.4 0
9.9 0.4 0
10.2 0.4 0
10.5 0.4 0
10.8 0.4 0
11.1 0.4 0
11.4 0.4 0
11.7 0.4 0
12 0.4 0
12.3 0.4 0
12.6 0.4 0
12.9 0.4 0
13.2 0.4 0
13.5 0.4 0
13.8 0.4 0
14.1 0.4 0
14.4 0.4 0
14.7 0.4 0
15 0.4 0
15.3 0.4 0
15.6 0.4 0
15.9 0.4 0
16.2 0.4 0
16.5 0.4 0
16.8 0.4 0
17.1 0.4 0
17.4 0.4 0
17.7 0.4 0
18 0.4 0
18.3 0.4 0
18.6 0.4 0
18.9 0.4 0
19.2 0.4 0
19.5 0.4 0
19.8 0.4 0
20.1 0.4 0
20.4 0.4 0
20.7 0.4 0
21 0.4 0
21.3 0.4 0
21.6 0.4 0
21.9 0.4 0
22.2 0.4 0
22.5 0.4 0
22.8 0.4 0
23.1 0.4 0
23.4 0.4 0
23.7 0.4 0
24 0.4 0
24.3 0.4 0
24.6 0.4 0
24.9 0.4 0
25.2 0.4 0
25.5 0.4 0
25.8 0.4 0
26.1 0.4 0
26.4 0.4 0
26.7 0.4 0
27 0.4 0
27.3 0.4 0
27.6 0.4 0
27.9 0.4 0
28.2 0.4 0
28.5 0.4 0
28.8 0.4 0
29.1 0.4 0
29.4 0.4 0
29.7 0.4 0
30 0.4 0
30.3 0.4 0
0 0.5 0
0.3 0.5 0
0.6 0.5 0
0.9 0.5 0
1.2 0.5 0
1.5 0.5 0
1.8 0.5 0
2.1 0.5 0
2.4 0.5 0
2.7 0.5 0
3 0.5 0
3.3 0.5 0
3.6 0.5 0
3.9 0.5 0
4.2 0.5 0
4.5 0.5 0
4.8 0.5 0
5.1 0.5 0
5.4 0.5 0
5.7 0.5 0
6 0.5 0
6.3 0.5 0
6.6 0.5 0
6.9 0.5 0
7.2 0.5 0
7.5 0.5 0
7.8 0.5 0
8.1 0.5 0
8.4 0.5 0
8.7 0.5 0
9 0.5 0
9.3 0.5 0
9.6 0.5 0
9.9 0.5 0
10.2 0.5 0
10.5 0.5 0
10.8 0.5 0
11.1 0.5 0
11.4 0.5 0
11.7 0.5 0
12 0.5 0
12.3 0.5 0
12.6 0.5 0
12.9 0.5 0
13.2 0.5 0
13.5 0.5 0
13.8 0.5 0
14.1 0.5 0
14.4 0.5 0
14.7 0.5 0
15 0.5 0
15.3 0.5 0
15.6 0.5 0
15.9 0.5 0
16.2 0.5 0
16.5 0.5 0
16.8 0.5 0
17.1 0.5 0
17.4 0.5 0
17.7 0.5 0
18 0.5 0
18.3 0.5 0
18.6 0.5 0
18.9 0.5 0
19.2 0.5 0
19.5 0.5 0
19.8 0.5 0
20.1 0.5 0
20.4 0.5 0
20.7 0.5 0
21 0.5 0
21.3 0.5 0
21.6 0.5 0
21.9 0.5 0
22.2 0.5 0
22.5 0.5 0
22.8 0.5 0
23.1 0.5 0
23.4 0.5 0
23.7 0.5 0
24 0.5 0
24.3 0.5 0
24.6 0.5 0
24.9 0.5 0
25.2 0.5 0
25.5 0.5 0
25.8 0.5 0
26.1 0.5 0
26.4 0.5 0
26.7 0.5 0
27 0.5 0
27.3 0.5 0
27.6 0.5 0
27.9 0.5 0
28.2 0.5 0
28.5 0.5 0
28.8 0.5 0
29.1 0.5 0
29.4 0.5 0
29.7 0.5 0
30 0.5 0
30.3 0.5 0
0 0.6 0
0.3 0.6 0
0.6 0.6 0
0.9 0.6 0
1.2 0.6 0
1.5 0.6 0
1.8 0.6 0
2.1 0.6 0
2.4 0.6 0
2.7 0.6 0
3 0.6 0
3.3 0.6 0
3.6 0.6 0
3.9 0.6 0
4.2 0.6 0
4.5 0.6 0
4.8 0.6 0
5.1 0.6 0
5.4 0.6 0
5.7 0.6 0
6 0.6 0
6.3 0.6 0
6.6 0.6 0
6.9 0.6 0
7.2 0.6 0
7.5 0.6 0
7.8 0.6 0
8.1 0.6 0
8.4 0.6 0
8.7 0.6 0
9 0.6 0
9.3 0.6 0
9.6 0.6 0
9.9 0.6 0
10.2 0.6 0
10.5 0.6 0
10.8 0.6 0
11.1 0.6 0
11.4 0.6 0
11.7 0.6 0
12 0.6 0
12.3 0.6 0
12.6 0.6 0
12.9 0.6 0
13.2 0.6 0
13.5 0.6 0
13.8 0.6 0
14.1 0.6 0
14.4 0.6 0
14.7 0.6 0
15 0.6 0
15.3 0.6 0
15.6 0.6 0
15.9 0.6 0
16.2 0.6 0
16.5 0.6 0
16.8 0.6 0
17.1 0.6 0
17.4 0.6 0
17.7 0.6 0
18 0.6 0
18.3 0.6 0
18.6 0.6 0
18.9 0.6 0
19.2 0.6 0
19.5 0.6 0
19.8 0.6 0
20.1 0.6 0
20.4 0.6 0
20.7 0.6 0
21 0.6 0
21.3 0.6 0
21.6 0.6 0
21.9 0.6 0
22.2 0.6 0
22.5 0.6 0
22.8 0.6 0
23.1 0.6 0
23.4 0.6 0
23.7 0.6 0
24 0.6 0
24.3 0.6 0
24.6 0.6 0
24.9 0.6 0
25.2 0.6 0
25.5 0.6 0
25.8 0.6 0
26.1 0.6 0
26.4 0.6 0
26.7 0.6 0
27 0.6 0
27.3 0.6 0
27.6 0.6 0
27.9 0.6 0
28.2 0.6 0
28.5 0.6 0
28.8 0.6 0
29.1 0.6 0
29.4 0.6 0
29.7 0.6 0
30 0.6 0
30.3 0.6 0
0 0.7 0
0.3 0.7 0
0.6 0.7 0
0.9 0.7 0
1.2 0.7 0
1.5 0.7 0
1.8 0.7 0
2.1 0.7 0
2.4 0.7 0
2.7 0.7 0
3 0.7 0
3.3 0.7 0
3.6 0.7 0
3.9 0.7 0
4.2 0.7 0
4.5 0.7 0
4.8 0.7 0
5.1 0.7 0
5.4 0.7 0
5.7 0.7 0
6 0.7 0
6.3 0.7 0
6.6 0.7 0
6.9 0.7 0
7.2 0.7 0
7.5 0.7 0
7.8 0.7 0
8.1 0.7 0
8.4 0.7 0
8.7 0.7 0
9 0.7 0
9.3 0.7 0
9.6 0.7 0
9.9 0.7 0
10.2 0.7 0
10.5 0.7 0
10.8 0.7 0
11.1 0.7 0
11.4 0.7 0
11.7 0.7 0
12 0.7 0
12.3 0.7 0
12.6 0.7 0
12.9 0.7 0
13.2 0.7 0
13.5 0.7 0
13.8 0.7 0
14.1 0.7 0
14.4 0.7 0
14.7 0.7 0
15 0.7 0
15.3 0.7 0
15.6 0.7 0
15.9 0.7 0
16.2 0.7 0
16.5 0.7 0
16.8 0.7 0
17.1 0.7 0
17.4 0.7 0
17.7 0.7 0
18 0.7 0
18.3 0.7 0
18.6 0.7 0
18.9 0.7 0
19.2 0.7 0
19.5 0.7 0
19.8 0.7 0
20.1 0.7 0
20.4 0.7 0
20.7 0.7 0
21 0.7 0
21.3 0.7 0
21.6 0.7 0
21.9 0.7 0
22.2 0.7 0
22.5 0.7 0
22.8 0.7 0
23.1 0.7 0
23.4 0.7 0
23.7 0.7 0
24 0.7 0
24.3 0.7 0
24.6 0.7 0
24.9 0.7 0
25.2 0.7 0
25.5 0.7 0
25.8 0.7 0
26.1 0.7 0
26.4 0.7 0
26.7 0.7 0
27 0.7 0
27.3 0.7 0
27.6 0.7 0
27.9 0.7 0
28.2 0.7 0
28.5 0.7 0
28.8 0.7 0
29.1 0.7 0
29.4 0.7 0
29.7 0.7 0
30 0.7 0
30.3 0.7 0
0 0.8 0
0.3 0.8 0
0.6 0.8 0
0.9 0.8 0
1.2 0.8 0
1.5 0.8 0
1.8 0.8 0
2.1 0.8 0
2.4 0.8 0
2.7 0.8 0
3 0.8 0
3.3 0.8 0
3.6 0.8 0
3.9 0.8 0
4.2 0.8 0
4.5 0.8 0
4.8 0.8 0
5.1 0.8 0
5.4 0.8 0
5.7 0.8 0
6 0.8 0
6.3 0.8 0
6.6 0.8 0
6.9 0.8 0
7.2 0.8 0
7.5 0.8 0
7.8 0.8 0
8.1 0.8 0
8.4 0.8 0
8.7 0.8 0
9 0.8 0
9.3 0.8 0
9.6 0.8 0
9.9 0.8 0
10.2 0.8 0
10.5 0.8 0
10.8 0.8 0
11.1 0.8 0
11.4 0.8 0
11.7 0.8 0
12 0.8 0
12.3 0.8 0
12.6 0.8 0
12.9 0.8 0
13.2 0.8 0
13.5 0.8 0
13.8 0.8 0
14.1 0.8 0
14.4 0.8 0
14.7 0.8 0
15 0.8 0
15.3 0.8 0
15.6 0.8 0
15.9 0.8 0
16.2 0.8 0
16.5 0.8 0
16.8 0.8 0
17.1 0.8 0
17.4 0.8 0
17.7 0.8 0
18 0.8 0
18.3 0.8 0
18.6 0.8 0
18.9 0.8 0
19.2 0.8 0
19.5 0.8 0
19.8 0.8 0
20.1 0.8 0
20.4 0.8 0
20.7 0.8 0
21 0.8 0
21.3 0.8 0
21.6 0.8 0
21.9 0.8 0
22.2 0.8 0
22.5 0.8 0
22.8 0.8 0
23.1 0.8 0
23.4 0.8 0
23.7 0.8 0
24 0.8 0
24.3 0.8 0
24.6 0.8 0
24.9 0.8 0
25.2 0.8 0
25.5 0.8 0
25.8 0.8 0
26.1 0.8 0
26.4 0.8 0
26.7 0.8 0
27 0.8 0
27.3 0.8 0
27.6 0.8 0
27.9 0.8 0
28.2 0.8 0
28.5 0.8 0
28.8 0.8 0
29.1 0.8 0
29.4 0.8 0
29.7 0.8 0
30 0.8 0
30.3 0.8 0
0 0.9 0
0.3 0.9 0
0.6 0.9 0
0.9 0.9 0
1.2 0.9 0
1.5 0.9 0
1.8 0.9 0
2.1 0.9 0
2.4 0.9 0
2.7 0.9 0
3 0.9 0
3.3 0.9 0
3.6 0.9 0
3.9 0.9 0
4.2 0.9 0
4.5 0.9 0
4.8 0.9 0
5.1 0.9 0
5.4 0.9 0
5.7 0.9 0
6 0.9 0
6.3 0.9 0
6.6 0.9 0
6.9 0.9 0
7.2 0.9 0
7.5 0.9 0
7.8 0.9 0
8.1 0.9 0
8.4 0.9 0
8.7 0.9 0
9 0.9 0
9.3 0.9 0
9.6 0.9 0
9.9 0.9 0
10.2 0.9 0
10.5 0.9 0
10.8 0.9 0
11.1 0.9 0
11.4 0.9 0
11.7 0.9 0
12 0.9 0
12.3 0.9 0
12.6 0.9 0
12.9 0.9 0
13.2 0.9 0
13.5 0.9 0
13.8 0.9 0
14.1 0.9 0
14.4 0.9 0
14.7 0.9 0
15 0.9 0
15.3 0.9 0
15.6 0.9 0
15.9 0.9 0
16.2 0.9 0
16.5 0.9 0
16.8 0.9 0
17.1 0.9 0
17.4 0.9 0
17.7 0.9 0
18 0.9 0
18.3 0.9 0
18.6 0.9 0
18.9 0.9 0
19.2 0.9 0
19.5 0.9 0
19.8 0.9 0
20.1 0.9 0
20.4 0.9 0
20.7 0.9 0
21 0.9 0
21.3 0.9 0
21.6 0.9 0
21.9 0.9 0
22.2 0.9 0
22.5 0.9 0
22.8 0.9 0
23.1 0.9 0
23.4 0.9 0
23.7 0.9 0
24 0.9 0
24.3 0.9 0
24.6 0.9 0
24.9 0.9 0
25.2 0.9 0
25.5 0.9 0
25.8 0.9 0
26.1 0.9 0
26.4 0.9 0
26.7 0.9 0
27 0.9 0
27.3 0.9 0
27.6 0.9 0
27.9 0.9 0
28.2 0.9 0
28.5 0.9 0
28.8 0.9 0
29.1 0.9 0
29.4 0.9 0
29.7 0.9 0
30 0.9 0
30.3 0.9 0
0 1 0
0.3 1 0
0.6 1 0
0.9 1 0
1.2 1 0
1.5 1 0
1.8 1 0
2.1 1 0
2.4 1 0
2.7 1 0
3 1 0
3.3 1 0
3.6 1 0
3.9 1 0
4.2 1 0
4.5 1 0
4.8 1 0
5.1 1 0
5.4 1 0
5.7 1 0
6 1 0
6.3 1 0
6.6 1 0
6.9 1 0
7.2 1 0
7.5 1 0
7.8 1 0
8.1 1 0
8.4 1 0
8.7 1 0
9 1 0
9.3 1 0
9.6 1 0
9.9 1 0
10.2 1 0
10.5 1 0
10.8 1 0
11.1 1 0
11.4 1 0
11.7 1 0
12 1 0
12.3 1 0
12.6 1 0
12.9 1 0
13.2 1 0
13.5 1 0
13.8 1 0
14.1 1 0
14.4 1 0
14.7 1 0
15 1 0
15.3 1 0
15.6 1 0
15.9 1 0
16.2 1 0
16.5 1 0
16.8 1 0
17.1 1 0
17.4 1 0
17.7 1 0
18 1 0
18.3 1 0
18.6 1 0
18.9 1 0
19.2 1 0
19.5 1 0
19.8 1 0
20.1 1 0
20.4 1 0
20.7 1 0
21 1 0
21.3 1 0
21.6 1 0
21.9 1 0
22.2 1 0
22.5 1 0
22.8 1 0
23.1 1 0
23.4 1 0
23.7 1 0
24 1 0
24.3 1 0
24.6 1 0
24.9 1 0
25.2 1 0
25.5 1 0
25.8 1 0
26.1 1 0
26.4 1 0
26.7 1 0
27 1 0
27.3 1 0
27.6 1 0
27.9 1 0
28.2 1 0
28.5 1 0
28.8 1 0
29.1 1 0
29.4 1 0
29.7 1 0
30 1 0
30.3 1 0
0 1.1 0
0.3 1.1 0
0.6 1.1 0
0.9 1.1 0
1.2 1.1 0
1.5 1.1 0
1.8 1.1 0
2.1 1.1 0
2.4 1.1 0
2.7 1.1 0
3 1.1 0
3.3 1.1 0
3.6 1.1 0
3.9 1.1 0
4.2 1.1 0
4.5 1.1 0
4.8 1.1 0
5.1 1.1 0
5.4 1.1 0
5.7 1.1 0
6 1.1 0
6.3 1.1 0
6.6 1.1 0
6.9 1.1 0
7.2 1.1 0
7.5 1.1 0
7.8 1.1 0
8.1 1.1 0
8.4 1.1 0
8.7 1.1 0
9 1.1 0
9.3 1.1 0
9.6 1.1 0
9.9 1.1 0
10.2 1.1 0
10.5 1.1 0
10.8 1.1 0
11.1 1.1 0
11.4 1.1 0
11.7 1.1 0
12 1.1 0
12.3 1.1 0
12.6 1.1 0
12.9 1.1 0
13.2 1.1 0
13.5 1.1 0
13.8 1.1 0
14.1 1.1 0
14.4 1.1 0
14.7 1.1 0
15 1.1 0
15.3 1.1 0
15.6 1.1 0
15.9 1.1 0
16.2 1.1 0
16.5 1.1 0
16.8 1.1 0
17.1 1.1 0
17.4 1.1 0
17.7 1.1 0
18 1.1 0
18.3 1.1 0
18.6 1.1 0
18.9 1.1 0
19.2 1.1 0
19.5 1.1 0
19.8 1.1 0
20.1 1.1 0
20.4 1.1 0
20.7 1.1 0
21 1.1 0
21.3 1.1 0
21.6 1.1 0
21.9 1.1 0
22.2 1.1 0
22.5 1.1 0
22.8 1.1 0
23.1 1.1 0
23.4 1.1 0
23.7 1.1 0
24 1.1 0
24.3 1.1 0
24.6 1.1 0
24.9 1.1 0
25.2 1.1 0
25.5 1.1 0
25.8 1.1 0
26.1 1.1 0
26.4 1.1 0
26.7 1.1 0
27 1.1 0
27.3 1.1 0
27.6 1.1 0
27.9 1.1 0
28.2 1.1 0
28.5 1.1 0
28.8 1.1 0
29.1 1.1 0
29.4 1.1 0
29.7 1.1 0
30 1.1 0
30.3 1.1 0

POINT_DATA 1224

VECTORS velocity double
LOOKUP_TABLE default
-1 0 0
-0.889035 0 0
-0.781419 0 0
-0.709684 0 0
-0.673082 0 0
-0.658355 0 0
-0.653577 0 0
-0.652322 0 0
-0.652063 0 0
-0.652028 0 0
-0.652028 0 0
-0.65203 0 0
-0.652031 0 0
-0.652031 0 0
-0.652031 0 0
-0.652031 0 0
-0.652031 0 0
-0.652031 0 0
-0.652032 0 0
-0.652032 0 0
-0.652032 0 0
-0.652032 0 0
-0.652032 0 0
-0.652032 0 0
-0.652032 0 0
-0.652032 0 0
-0.652032 0 0
-0.652032 0 0
-0.652033 0 0
-0.652033 0 0
-0.652033 0 0
-0.652033 0 0
-0.652033 0 0
-0.652033 0 0
-0.652033 0 0
-0.652033 0 0
-0.652033 0 0
-0.652033 0 0
-0.652033 0 0
-0.652033 0 0
-0.652033 0 0
-0.652033 0 0
-0.652033 0 0
-0.652033 0 0
-0.652033 0 0
-0.652033 0 0
-0.652033 0 0
-0.652033 0 0
-0.652033 0 0
-0.652033 0 0
-0.652032 0 0
-0.652032 0 0
-0.652032 0 0
-0.652032 0 0
-0.652032 0 0
-0.652032 0 0
-0.652032 0 0
-0.652032 0 0
-0.652032 0 0
-0.652032 0 0
-0.652031 0 0
-0.652031 0 0
-0.652031 0 0
-0.652031 0 0
-0.652031 0 0
-0.652031 0 0
-0.65203 0 0
-0.65203 0 0
-0.65203 0 0
-0.65203 0 0
-0.65203 0 0
-0.65203 0 0
-0.652029 0 0
-0.652029 0 0
-0.652029 0 0
-0.652029 0 0
-0.652029 0 0
-0.652028 0 0
-0.652028 0 0
-0.652028 0 0
-0.652028 0 0
-0.652027 0 0
-0.652027 0 0
-0.652027 0 0
-0.652027 0 0
-0.652026 0 0
-0.652026 0 0
-0.652026 0 0
-0.652026 0 0
-0.652025 0 0
-0.652025 0 0
-0.652025 0 0
-0.652025 0 0
-0.652025 0 0
-0.652025 0 0
-0.652027 0 0
-0.652032 0 0
-0.652094 0 0
-0.652132 0 0
-0.653612 0 0
-0.653612 0 0
-1 0 0
1 -0.0369882 0
0.889035 0.0369882 0
0.781419 0.035872 0
0.709684 0.0239117 0
0.673082 0.0122006 0
0.658355 0.00490923 0
0.653577 0.00159272 0
0.652322 0.000418356 0
0.652063 8.61179e-05 0
0.652028 1.19503e-05 0
0.652028 1.15203e-08 0
0.65203 -6.6771e-07 0
0.652031 -2.74345e-07 0
0.652031 -9.42268e-08 0
0.652031 -4.5593e-08 0
0.652031 -3.60415e-08 0
0.652031 -3.52447e-08 0
0.652031 -3.60836e-08 0
0.652032 -3.72202e-08 0
0.652032 -3.84533e-08 0
0.652032 -3.97615e-08 0
0.652032 -4.11436e-08 0
0.652032 -4.25988e-08 0
0.652032 -4.41262e-08 0
0.652032 -4.57246e-08 0
0.652032 -4.73929e-08 0
0.652032 -4.91297e-08 0
0.652032 -5.0933e-08 0
0.652033 -5.28009e-08 0
0.652033 -5.47316e-08 0
0.652033 -5.67227e-08 0
0.652033 -5.87719e-08 0
0.652033 -6.08767e-08 0
0.652033 -6.30345e-08 0
0.652033 -6.52427e-08 0
0.652033 -6.7499e-08 0
0.652033 -6.9802e-08 0
0.652033 -7.2151e-08 0
0.652033 -7.45449e-08 0
0.652033 -7.69804e-08 0
0.652033 -7.94531e-08 0
0.652033 -8.19598e-08 0
0.652033 -8.44988e-08 0
0.652033 -8.70687e-08 0
0.652033 -8.96669e-08 0
0.652033 -9.22922e-08 0
0.652033 -9.49431e-08 0
0.652033 -9.76179e-08 0
0.652033 -1.00306e-07 0
0.652033 -1.03019e-07 0
0.652032 -1.05761e-07 0
0.652032 -1.08532e-07 0
0.652032 -1.11327e-07 0
0.652032 -1.14127e-07 0
0.652032 -1.16914e-07 0
0.652032 -1.19685e-07 0
0.652032 -1.22446e-07 0
0.652032 -1.25202e-07 0
0.652032 -1.27953e-07 0
0.652032 -1.30693e-07 0
0.652031 -1.33419e-07 0
0.652031 -1.36126e-07 0
0.652031 -1.38814e-07 0
0.652031 -1.41481e-07 0
0.652031 -1.44126e-07 0
0.652031 -1.46745e-07 0
0.65203 -1.49337e-07 0
0.65203 -1.519e-07 0
0.65203 -1.5443e-07 0
0.65203 -1.56925e-07 0
0.65203 -1.59382e-07 0
0.65203 -1.61799e-07 0
0.652029 -1.64174e-07 0
0.652029 -1.66504e-07 0
0.652029 -1.68786e-07 0
0.652029 -1.71018e-07 0
0.652029 -1.73198e-07 0
0.652028 -1.75324e-07 0
0.652028 -1.77392e-07 0
0.652028 -1.79402e-07 0
0.652028 -1.81351e-07 0
0.652027 -1.83236e-07 0
0.652027 -1.85055e-07 0
0.652027 -1.86806e-07 0
0.652027 -1.88488e-07 0
0.652026 -1.90099e-07 0
0.652026 -1.91637e-07 0
0.652026 -1.93105e-07 0
0.652026 -1.94511e-07 0
0.652025 -1.95895e-07 0
0.652025 -1.9743e-07 0
0.652025 -1.99877e-07 0
0.652025 -2.06519e-07 0
0.652025 -2.33822e-07 0
0.652025 -3.33836e-07 0
0.652027 -9.77798e-07 0
0.652032 -2.00415e-06 0
0.652094 -2.10083e-05 0
0.652132 -1.276e-05 0
0.653612 -0.000493633 0
0.653612 -0.000739159 0
1 -0.000739159 0
1 -0.0277783 0
1.02763 0.0277783 0
1.03492 0.0334405 0
1.03614 0.023507 0
1.03657 0.012056 0
1.03706 0.00474598 0
1.03748 0.00145362 0
1.03773 0.000333918 0
1.03785 4.6222e-05 0
1.0379 -3.63068e-06 0
1.03791 -5.13027e-06 0
1.03792 -2.15056e-06 0
1.03792 -6.72711e-07 0
1.03792 -1.93749e-07 0
1.03792 -6.935e-08 0
1.03792 -4.21702e-08 0
1.03792 -3.75268e-08 0
1.03792 -3.74889e-08 0
1.03792 -3.83316e-08 0
1.03792 -3.93753e-08 0
1.03792 -4.05116e-08 0
1.03792 -4.17255e-08 0
1.03792 -4.30144e-08 0
1.03792 -4.43771e-08 0
1.03792 -4.58123e-08 0
1.03792 -4.73188e-08 0
1.03792 -4.88958e-08 0
1.03792 -5.0543e-08 0
1.03792 -5.22598e-08 0
1.03792 -5.40447e-08 0
1.03792 -5.58947e-08 0
1.03792 -5.78065e-08 0
1.03792 -5.97769e-08 0
1.03792 -6.18028e-08 0
1.03792 -6.38808e-08 0
1.03792 -6.60087e-08 0
1.03792 -6.81861e-08 0
1.03792 -7.04122e-08 0
1.03792 -7.2685e-08 0
1.03792 -7.50008e-08 0
1.03792 -7.73565e-08 0
1.03792 -7.97506e-08 0
1.03792 -8.21825e-08 0
1.03792 -8.46507e-08 0
1.03792 -8.71528e-08 0
1.03792 -8.96864e-08 0
1.03792 -9.22487e-08 0
1.03792 -9.48346e-08 0
1.03792 -9.7443e-08 0
1.03792 -1.0008e-07 0
1.03792 -1.02741e-07 0
1.03792 -1.0542e-07 0
1.03792 -1.08107e-07 0
1.03792 -1.10792e-07 0
1.03792 -1.13473e-07 0
1.03792 -1.1616e-07 0
1.03792 -1.18855e-07 0
1.03792 -1.21558e-07 0
1.03792 -1.24263e-07 0
1.03792 -1.26962e-07 0
1.03792 -1.29654e-07 0
1.03792 -1.32336e-07 0
1.03792 -1.35008e-07 0
1.03792 -1.37667e-07 0
1.03792 -1.40311e-07 0
1.03792 -1.42935e-07 0
1.03792 -1.45538e-07 0
1.03792 -1.48117e-07 0
1.03792 -1.50669e-07 0
1.03792 -1.53191e-07 0
1.03792 -1.55682e-07 0
1.03792 -1.58138e-07 0
1.03791 -1.60557e-07 0
1.03791 -1.62937e-07 0
1.03791 -1.65275e-07 0
1.03791 -1.67569e-07 0
1.03791 -1.69816e-07 0
1.03791 -1.72014e-07 0
1.03791 -1.7416e-07 0
1.03791 -1.76254e-07 0
1.03791 -1.78291e-07 0
1.03791 -1.80269e-07 0
1.03791 -1.82187e-07 0
1.03791 -1.84042e-07 0
1.03791 -1.85834e-07 0
1.03791 -1.8756e-07 0
1.03791 -1.8922e-07 0
1.03791 -1.90817e-07 0
1.03791 -1.92366e-07 0
1.03791 -1.93928e-07 0
1.03791 -1.95759e-07 0
1.03791 -1.98969e-07 0
1.03791 -2.08419e-07 0
1.03791 -2.46539e-07 0
1.03791 -4.0344e-07 0
1.03791 -1.20701e-06 0
1.03791 -3.64854e-06 0
1.03792 -2.41261e-05 0
1.03802 -4.45722e-05 0
1.03817 -0.000545589 0
1.03817 -0.000806884 0
1 -0.000806884 0
1 -0.0166613 0
1.03335 0.0166613 0
1.06552 0.0227185 0
1.08568 0.0167875 0
1.09495 0.00896455 0
1.09809 0.00369954 0
1.09883 0.00120684 0
1.09891 0.000306279 0
1.09889 5.42011e-05 0
1.09887 2.57242e-06 0
1.09886 -2.77602e-06 0
1.09886 -1.48938e-06 0
1.09886 -5.15614e-07 0
1.09886 -1.53716e-07 0
1.09886 -5.10154e-08 0
1.09886 -2.69514e-08 0
1.09886 -2.26527e-08 0
1.09886 -2.27173e-08 0
1.09886 -2.36899e-08 0
1.09886 -2.48892e-08 0
1.09886 -2.61964e-08 0
1.09886 -2.75927e-08 0
1.09886 -2.90745e-08 0
1.09886 -3.06401e-08 0
1.09886 -3.22878e-08 0
1.09886 -3.40161e-08 0
1.09886 -3.58249e-08 0
1.09886 -3.77149e-08 0
1.09886 -3.96859e-08 0
1.09886 -4.17361e-08 0
1.09886 -4.38615e-08 0
1.09886 -4.60577e-08 0
1.09886 -4.83204e-08 0
1.09886 -5.06455e-08 0
1.09886 -5.30285e-08 0
1.09886 -5.54668e-08 0
1.09886 -5.79601e-08 0
1.09886 -6.05081e-08 0
1.09886 -6.31084e-08 0
1.09886 -6.57573e-08 0
1.09886 -6.84515e-08 0
1.09886 -7.11894e-08 0
1.09886 -7.39704e-08 0
1.09886 -7.67927e-08 0
1.09886 -7.96537e-08 0
1.09886 -8.25498e-08 0
1.09886 -8.54773e-08 0
1.09886 -8.84309e-08 0
1.09886 -9.14112e-08 0
1.09886 -9.44196e-08 0
1.09886 -9.74499e-08 0
1.09886 -1.00495e-07 0
1.09886 -1.03548e-07 0
1.09886 -1.06601e-07 0
1.09886 -1.09659e-07 0
1.09886 -1.12725e-07 0
1.09886 -1.15803e-07 0
1.09886 -1.18886e-07 0
1.09886 -1.21969e-07 0
1.09886 -1.25046e-07 0
1.09886 -1.28114e-07 0
1.09886 -1.31173e-07 0
1.09886 -1.3422e-07 0
1.09886 -1.37253e-07 0
1.09886 -1.40267e-07 0
1.09886 -1.43259e-07 0
1.09886 -1.46225e-07 0
1.09885 -1.49164e-07 0
1.09885 -1.52072e-07 0
1.09885 -1.54946e-07 0
1.09885 -1.57783e-07 0
1.09885 -1.6058e-07 0
1.09885 -1.63335e-07 0
1.09885 -1.66045e-07 0
1.09885 -1.68707e-07 0
1.09885 -1.71318e-07 0
1.09885 -1.73876e-07 0
1.09885 -1.76377e-07 0
1.09885 -1.7882e-07 0
1.09885 -1.81201e-07 0
1.09885 -1.83518e-07 0
1.09885 -1.85768e-07 0
1.09885 -1.87949e-07 0
1.09885 -1.90059e-07 0
1.09885 -1.92095e-07 0
1.09885 -1.94057e-07 0
1.09885 -1.95943e-07 0
1.09885 -1.97758e-07 0
1.09885 -1.99516e-07 0
1.09885 -2.01279e-07 0
1.09885 -2.03291e-07 0
1.09885 -2.06581e-07 0
1.09885 -2.15636e-07 0
1.09885 -2.50375e-07 0
1.09885 -3.98153e-07 0
1.09885 -1.07711e-06 0
1.09885 -3.71372e-06 0
1.09883 -1.8811e-05 0
1.09886 -5.38307e-05 0
1.09835 -0.000377244 0
1.09835 -0.000575139 0
1 -0.000575139 0
1 -0.0077144 0
1.02684 0.0077144 0
1.06121 0.0112615 0
1.08576 0.0086051 0
1.09842 0.00474255 0
1.10343 0.0020319 0
1.10496 0.000696022 0
1.10531 0.00019004 0
1.10535 3.90146e-05 0
1.10535 4.43012e-06 0
1.10534 -7.21592e-07 0
1.10534 -6.38766e-07 0
1.10534 -2.45449e-07 0
1.10534 -7.20238e-08 0
1.10534 -1.90086e-08 0
1.10534 -6.3179e-09 0
1.10534 -4.4388e-09 0
1.10534 -5.09837e-09 0
1.10534 -6.34499e-09 0
1.10534 -7.77753e-09 0
1.10534 -9.32324e-09 0
1.10534 -1.09698e-08 0
1.10534 -1.27138e-08 0
1.10534 -1.45533e-08 0
1.10534 -1.6486e-08 0
1.10534 -1.85103e-08 0
1.10534 -2.06266e-08 0
1.10534 -2.28366e-08 0
1.10534 -2.51406e-08 0
1.10534 -2.7536e-08 0
1.10534 -3.00179e-08 0
1.10534 -3.25807e-08 0
1.10534 -3.52188e-08 0
1.10534 -3.7927e-08 0
1.10534 -4.06997e-08 0
1.10534 -4.35333e-08 0
1.10534 -4.64283e-08 0
1.10534 -4.93847e-08 0
1.10534 -5.24004e-08 0
1.10534 -5.54713e-08 0
1.10534 -5.85935e-08 0
1.10534 -6.17649e-08 0
1.10534 -6.49843e-08 0
1.10534 -6.825e-08 0
1.10534 -7.15588e-08 0
1.10534 -7.49064e-08 0
1.10534 -7.82879e-08 0
1.10534 -8.16994e-08 0
1.10534 -8.51397e-08 0
1.10534 -8.86073e-08 0
1.10534 -9.20973e-08 0
1.10534 -9.56049e-08 0
1.10534 -9.91254e-08 0
1.10534 -1.02655e-07 0
1.10534 -1.06193e-07 0
1.10534 -1.09738e-07 0
1.10533 -1.13289e-07 0
1.10533 -1.16841e-07 0
1.10533 -1.20389e-07 0
1.10533 -1.23928e-07 0
1.10533 -1.27456e-07 0
1.10533 -1.30972e-07 0
1.10533 -1.34471e-07 0
1.10533 -1.37952e-07 0
1.10533 -1.41409e-07 0
1.10533 -1.44839e-07 0
1.10533 -1.48238e-07 0
1.10533 -1.51604e-07 0
1.10533 -1.54932e-07 0
1.10533 -1.58221e-07 0
1.10533 -1.61465e-07 0
1.10533 -1.64663e-07 0
1.10533 -1.6781e-07 0
1.10533 -1.70904e-07 0
1.10533 -1.73942e-07 0
1.10533 -1.7692e-07 0
1.10533 -1.79835e-07 0
1.10533 -1.82685e-07 0
1.10533 -1.85465e-07 0
1.10533 -1.88174e-07 0
1.10533 -1.90808e-07 0
1.10533 -1.93363e-07 0
1.10533 -1.95839e-07 0
1.10533 -1.98231e-07 0
1.10533 -2.00538e-07 0
1.10533 -2.02758e-07 0
1.10533 -2.0489e-07 0
1.10533 -2.06937e-07 0
1.10533 -2.08912e-07 0
1.10533 -2.10858e-07 0
1.10533 -2.12937e-07 0
1.10533 -2.15784e-07 0
1.10533 -2.22065e-07 0
1.10533 -2.4329e-07 0
1.10533 -3.31191e-07 0
1.10533 -7.17023e-07 0
1.10532 -2.35814e-06 0
1.1053 -1.03024e-05 0
1.10524 -3.45484e-05 0
1.10466 -0.000186138 0
1.10466 -0.000290624 0
1 -0.000290624 0
1 -2.71131e-08 0
1.02314 2.71131e-08 0
1.05693 8.04037e-08 0
1.08274 -3.72982e-08 0
1.09697 -2.1692e-07 0
1.10307 -2.96013e-07 0
1.10516 -2.52561e-07 0
1.10573 -1.57192e-07 0
1.10584 -7.28969e-08 0
1.10586 -2.0784e-08 0
1.10586 4.51652e-09 0
1.10585 1.45831e-08 0
1.10585 1.75751e-08 0
1.10585 1.77339e-08 0
1.10585 1.68816e-08 0
1.10585 1.56808e-08 0
1.10585 1.4328e-08 0
1.10585 1.28653e-08 0
1.10585 1.12951e-08 0
1.10585 9.61438e-09 0
1.10585 7.82147e-09 0
1.10585 5.91682e-09 0
1.10585 3.90266e-09 0
1.10585 1.78123e-09 0
1.10585 -4.44793e-10 0
1.10585 -2.77324e-09 0
1.10585 -5.20533e-09 0
1.10585 -7.74393e-09 0
1.10585 -1.03898e-08 0
1.10585 -1.31399e-08 0
1.10585 -1.59879e-08 0
1.10585 -1.89267e-08 0
1.10585 -2.19499e-08 0
1.10585 -2.50513e-08 0
1.10585 -2.82233e-08 0
1.10585 -3.14616e-08 0
1.10585 -3.47677e-08 0
1.10585 -3.81424e-08 0
1.10585 -4.15835e-08 0
1.10585 -4.50868e-08 0
1.10585 -4.86473e-08 0
1.10585 -5.22621e-08 0
1.10585 -5.59301e-08 0
1.10585 -5.96494e-08 0
1.10585 -6.34163e-08 0
1.10585 -6.72255e-08 0
1.10585 -7.10715e-08 0
1.10585 -7.49509e-08 0
1.10585 -7.88611e-08 0
1.10585 -8.27983e-08 0
1.10585 -8.67586e-08 0
1.10585 -9.074e-08 0
1.10585 -9.47413e-08 0
1.10585 -9.87599e-08 0
1.10585 -1.02791e-07 0
1.10585 -1.06828e-07 0
1.10585 -1.10864e-07 0
1.10585 -1.14895e-07 0
1.10585 -1.18917e-07 0
1.10585 -1.22928e-07 0
1.10585 -1.26925e-07 0
1.10585 -1.30907e-07 0
1.10585 -1.34868e-07 0
1.10585 -1.38805e-07 0
1.10585 -1.42714e-07 0
1.10585 -1.4659e-07 0
1.10585 -1.50429e-07 0
1.10585 -1.54229e-07 0
1.10585 -1.57986e-07 0
1.10585 -1.61695e-07 0
1.10585 -1.65354e-07 0
1.10585 -1.68958e-07 0
1.10585 -1.72505e-07 0
1.10585 -1.75989e-07 0
1.10585 -1.79408e-07 0
1.10584 -1.82759e-07 0
1.10584 -1.86037e-07 0
1.10584 -1.89239e-07 0
1.10584 -1.92362e-07 0
1.10584 -1.95403e-07 0
1.10584 -1.98357e-07 0
1.10584 -2.01222e-07 0
1.10584 -2.03995e-07 0
1.10584 -2.06673e-07 0
1.10584 -2.09253e-07 0
1.10584 -2.11733e-07 0
1.10584 -2.14113e-07 0
1.10584 -2.16392e-07 0
1.10584 -2.18579e-07 0
1.10584 -2.2069e-07 0
1.10584 -2.22766e-07 0
1.10584 -2.24874e-07 0
1.10584 -2.27064e-07 0
1.10584 -2.29202e-07 0
1.10584 -2.29249e-07 0
1.10584 -2.28343e-07 0
1.10583 -2.27156e-07 0
1.1058 -2.26919e-07 0
1.1057 -2.27355e-07 0
1.10514 -2.27597e-07 0
1.10514 -2.28388e-07 0
1 -2.28388e-07 0
1 0.00771434 0
1.02314 -0.00771434 0
1.05693 -0.0112614 0
1.08274 -0.00860521 0
1.09697 -0.004743 0
1.10307 -0.00203248 0
1.10516 -0.000696504 0
1.10573 -0.000190333 0
1.10584 -3.91468e-05 0
1.10586 -4.46473e-06 0
1.10586 7.33637e-07 0
1.10585 6.69079e-07 0
1.10585 2.80985e-07 0
1.10585 1.07599e-07 0
1.10585 5.27886e-08 0
1.10585 3.76707e-08 0
1.10585 3.30804e-08 0
1.10585 3.08138e-08 0
1.10585 2.892e-08 0
1.10585 2.69909e-08 0
1.10585 2.49504e-08 0
1.10585 2.27871e-08 0
1.10585 2.05023e-08 0
1.10585 1.80984e-08 0
1.10585 1.55788e-08 0
1.10585 1.29463e-08 0
1.10585 1.01988e-08 0
1.10585 7.33195e-09 0
1.10585 4.34416e-09 0
1.10585 1.23919e-09 0
1.10585 -1.97533e-09 0
1.10585 -5.29075e-09 0
1.10585 -8.69945e-09 0
1.10585 -1.21945e-08 0
1.10585 -1.57661e-08 0
1.10585 -1.94089e-08 0
1.10585 -2.31258e-08 0
1.10585 -2.69186e-08 0
1.10585 -3.07855e-08 0
1.10585 -3.47213e-08 0
1.10585 -3.87203e-08 0
1.10585 -4.27784e-08 0
1.10585 -4.68947e-08 0
1.10585 -5.10676e-08 0
1.10585 -5.52929e-08 0
1.10585 -5.95639e-08 0
1.10585 -6.38742e-08 0
1.10585 -6.82214e-08 0
1.10585 -7.26015e-08 0
1.10585 -7.70081e-08 0
1.10585 -8.14386e-08 0
1.10585 -8.58935e-08 0
1.10585 -9.03751e-08 0
1.10585 -9.48827e-08 0
1.10585 -9.94072e-08 0
1.10585 -1.03935e-07 0
1.10585 -1.08456e-07 0
1.10585 -1.12966e-07 0
1.10585 -1.17462e-07 0
1.10585 -1.21945e-07 0
1.10585 -1.26411e-07 0
1.10585 -1.30858e-07 0
1.10585 -1.35281e-07 0
1.10585 -1.39674e-07 0
1.10585 -1.44034e-07 0
1.10585 -1.48356e-07 0
1.10585 -1.52635e-07 0
1.10585 -1.56869e-07 0
1.10585 -1.61053e-07 0
1.10585 -1.65184e-07 0
1.10585 -1.69256e-07 0
1.10585 -1.73267e-07 0
1.10585 -1.77212e-07 0
1.10585 -1.81086e-07 0
1.10585 -1.84887e-07 0
1.10584 -1.88609e-07 0
1.10584 -1.92249e-07 0
1.10584 -1.95804e-07 0
1.10584 -1.99269e-07 0
1.10584 -2.02641e-07 0
1.10584 -2.05915e-07 0
1.10584 -2.09089e-07 0
1.10584 -2.12159e-07 0
1.10584 -2.15122e-07 0
1.10584 -2.17975e-07 0
1.10584 -2.20715e-07 0
1.10584 -2.2334e-07 0
1.10584 -2.25851e-07 0
1.10584 -2.28247e-07 0
1.10584 -2.30519e-07 0
1.10584 -2.32581e-07 0
1.10584 -2.33945e-07 0
1.10584 -2.32059e-07 0
1.10584 -2.15338e-07 0
1.10584 -1.27455e-07 0
1.10584 2.60263e-07 0
1.10583 1.9039e-06 0
1.1058 9.84864e-06 0
1.1057 3.40937e-05 0
1.10514 0.000185683 0
1.10514 0.000290167 0
1 0.000290167 0
1 0.0166612 0
1.02684 -0.0166612 0
1.06121 -0.0227184 0
1.08576 -0.0167877 0
1.09843 -0.00896505 0
1.10343 -0.00370008 0
1.10496 -0.00120725 0
1.10531 -0.00030651 0
1.10535 -5.42938e-05 0
1.10535 -2.58699e-06 0
1.10534 2.7966e-06 0
1.10534 1.52285e-06 0
1.10534 5.5215e-07 0
1.10534 1.89512e-07 0
1.10534 8.47632e-08 0
1.10534 5.81992e-08 0
1.10534 5.11699e-08 0
1.10534 4.83012e-08 0
1.10534 4.61281e-08 0
1.10534 4.39599e-08 0
1.10534 4.16745e-08 0
1.10534 3.92543e-08 0
1.10534 3.67007e-08 0
1.10534 3.40167e-08 0
1.10534 3.12062e-08 0
1.10534 2.82738e-08 0
1.10534 2.52168e-08 0
1.10534 2.20287e-08 0
1.10534 1.87068e-08 0
1.10534 1.52551e-08 0
1.10534 1.16828e-08 0
1.10534 8.00006e-09 0
1.10534 4.21547e-09 0
1.10534 3.35982e-10 0
1.10534 -3.62727e-09 0
1.10534 -7.66633e-09 0
1.10534 -1.17861e-08 0
1.10534 -1.59893e-08 0
1.10534 -2.0274e-08 0
1.10534 -2.46344e-08 0
1.10534 -2.90635e-08 0
1.10534 -3.35563e-08 0
1.10534 -3.81118e-08 0
1.10534 -4.27292e-08 0
1.10534 -4.74037e-08 0
1.10534 -5.21275e-08 0
1.10534 -5.68926e-08 0
1.10534 -6.16979e-08 0
1.10534 -6.65386e-08 0
1.10534 -7.14048e-08 0
1.10534 -7.62944e-08 0
1.10534 -8.12103e-08 0
1.10534 -8.61582e-08 0
1.10534 -9.114e-08 0
1.10534 -9.6144e-08 0
1.10534 -1.0115e-07 0
1.10533 -1.06144e-07 0
1.10533 -1.1112e-07 0
1.10533 -1.1608e-07 0
1.10533 -1.21022e-07 0
1.10533 -1.25946e-07 0
1.10533 -1.30848e-07 0
1.10533 -1.35722e-07 0
1.10533 -1.40561e-07 0
1.10533 -1.45361e-07 0
1.10533 -1.50118e-07 0
1.10533 -1.54828e-07 0
1.10533 -1.59486e-07 0
1.10533 -1.64087e-07 0
1.10533 -1.68629e-07 0
1.10533 -1.73106e-07 0
1.10533 -1.77513e-07 0
1.10533 -1.81846e-07 0
1.10533 -1.86101e-07 0
1.10533 -1.90273e-07 0
1.10533 -1.94358e-07 0
1.10533 -1.98352e-07 0
1.10533 -2.0225e-07 0
1.10533 -2.06048e-07 0
1.10533 -2.09742e-07 0
1.10533 -2.13329e-07 0
1.10533 -2.16803e-07 0
1.10533 -2.20162e-07 0
1.10533 -2.23402e-07 0
1.10533 -2.26519e-07 0
1.10533 -2.29511e-07 0
1.10533 -2.32375e-07 0
1.10533 -2.3511e-07 0
1.10533 -2.37709e-07 0
1.10533 -2.40144e-07 0
1.10533 -2.42243e-07 0
1.10533 -2.43143e-07 0
1.10533 -2.38528e-07 0
1.10533 -2.09093e-07 0
1.10533 -6.14918e-08 0