# vtk DataFile Version 2.0
FlowField
ASCII
DATASET STRUCTURED_GRID
DIMENSIONS 101 11 1 
POINTS 1111 double
0 0 0
0.3 0 0
0.6 0 0
0.9 0 0
1.2 0 0
1.5 0 0
1.8 0 0
2.1 0 0
2.4 0 0
2.7 0 0
3 0 0
3.3 0 0
3.6 0 0
3.9 0 0
4.2 0 0
4.5 0 0
4.8 0 0
5.1 0 0
5.4 0 0
5.7 0 0
6 0 0
6.3 0 0
6.6 0 0
6.9 0 0
7.2 0 0
7.5 0 0
7.8 0 0
8.1 0 0
8.4 0 0
8.7 0 0
9 0 0
9.3 0 0
9.6 0 0
9.9 0 0
10.2 0 0
10.5 0 0
10.8 0 0
11.1 0 0
11.4 0 0
11.7 0 0
12 0 0
12.3 0 0
12.6 0 0
12.9 0 0
13.2 0 0
13.5 0 0
13.8 0 0
14.1 0 0
14.4 0 0
14.7 0 0
15 0 0
15.3 0 0
15.6 0 0
15.9 0 0
16.2 0 0
16.5 0 0
16.8 0 0
17.1 0 0
17.4 0 0
17.7 0 0
18 0 0
18.3 0 0
18.6 0 0
18.9 0 0
19.2 0 0
19.5 0 0
19.8 0 0
20.1 0 0
20.4 0 0
20.7 0 0
21 0 0
21.3 0 0
21.6 0 0
21.9 0 0
22.2 0 0
22.5 0 0
22.8 0 0
23.1 0 0
23.4 0 0
23.7 0 0
24 0 0
24.3 0 0
24.6 0 0
24.9 0 0
25.2 0 0
25.5 0 0
25.8 0 0
26.1 0 0
26.4 0 0
26.7 0 0
27 0 0
27.3 0 0
27.6 0 0
27.9 0 0
28.2 0 0
28.5 0 0
28.8 0 0
29.1 0 0
29.4 0 0
29.7 0 0
30 0 0
0 0.1 0
0.3 0.1 0
0.6 0.1 0
0.9 0.1 0
1.2 0.1 0
1.5 0.1 0
1.8 0.1 0
2.1 0.1 0
2.4 0.1 0
2.7 0.1 0
3 0.1 0
3.3 0.1 0
3.6 0.1 0
3.9 0.1 0
4.2 0.1 0
4.5 0.1 0
4.8 0.1 0
5.1 0.1 0
5.4 0.1 0
5.7 0.1 0
6 0.1 0
6.3 0.1 0
6.6 0.1 0
6.9 0.1 0
7.2 0.1 0
7.5 0.1 0
7.8 0.1 0
8.1 0.1 0
8.4 0.1 0
8.7 0.1 0
9 0.1 0
9.3 0.1 0
9.6 0.1 0
9.9 0.1 0
10.2 0.1 0
10.5 0.1 0
10.8 0.1 0
11.1 0.1 0
11.4 0.1 0
11.7 0.1 0
12 0.1 0
12.3 0.1 0
12.6 0.1 0
12.9 0.1 0
13.2 0.1 0
13.5 0.1 0
13.8 0.1 0
14.1 0.1 0
14.4 0.1 0
14.7 0.1 0
15 0.1 0
15.3 0.1 0
15.6 0.1 0
15.9 0.1 0
16.2 0.1 0
16.5 0.1 0
16.8 0.1 0
17.1 0.1 0
17.4 0.1 0
17.7 0.1 0
18 0.1 0
18.3 0.1 0
18.6 0.1 0
18.9 0.1 0
19.2 0.1 0
19.5 0.1 0
19.8 0.1 0
20.1 0.1 0
20.4 0.1 0
20.7 0.1 0
21 0.1 0
21.3 0.1 0
21.6 0.1 0
21.9 0.1 0
22.2 0.1 0
22.5 0.1 0
22.8 0.1 0
23.1 0.1 0
23.4 0.1 0
23.7 0.1 0
24 0.1 0
24.3 0.1 0
24.6 0.1 0
24.9 0.1 0
25.2 0.1 0
25.5 0.1 0
25.8 0.1 0
26.1 0.1 0
26.4 0.1 0
26.7 0.1 0
27 0.1 0
27.3 0.1 0
27.6 0.1 0
27.9 0.1 0
28.2 0.1 0
28.5 0.1 0
28.8 0.1 0
29.1 0.1 0
29.4 0.1 0
29.7 0.1 0
30 0.1 0
0 0.2 0
0.3 0.2 0
0.6 0.2 0
0.9 0.2 0
1.2 0.2 0
1.5 0.2 0
1.8 0.2 0
2.1 0.2 0
2.4 0.2 0
2.7 0.2 0
3 0.2 0
3.3 0.2 0
3.6 0.2 0
3.9 0.2 0
4.2 0.2 0
4.5 0.2 0
4.8 0.2 0
5.1 0.2 0
5.4 0.2 0
5.7 0.2 0
6 0.2 0
6.3 0.2 0
6.6 0.2 0
6.9 0.2 0
7.2 0.2 0
7.5 0.2 0
7.8 0.2 0
8.1 0.2 0
8.4 0.2 0
8.7 0.2 0
9 0.2 0
9.3 0.2 0
9.6 0.2 0
9.9 0.2 0
10.2 0.2 0
10.5 0.2 0
10.8 0.2 0
11.1 0.2 0
11.4 0.2 0
11.7 0.2 0
12 0.2 0
12.3 0.2 0
12.6 0.2 0
12.9 0.2 0
13.2 0.2 0
13.5 0.2 0
13.8 0.2 0
14.1 0.2 0
14.4 0.2 0
14.7 0.2 0
15 0.2 0
15.3 0.2 0
15.6 0.2 0
15.9 0.2 0
16.2 0.2 0
16.5 0.2 0
16.8 0.2 0
17.1 0.2 0
17.4 0.2 0
17.7 0.2 0
18 0.2 0
18.3 0.2 0
18.6 0.2 0
18.9 0.2 0
19.2 0.2 0
19.5 0.2 0
19.8 0.2 0
20.1 0.2 0
20.4 0.2 0
20.7 0.2 0
21 0.2 0
21.3 0.2 0
21.6 0.2 0
21.9 0.2 0
22.2 0.2 0
22.5 0.2 0
22.8 0.2 0
23.1 0.2 0
23.4 0.2 0
23.7 0.2 0
24 0.2 0
24.3 0.2 0
24.6 0.2 0
24.9 0.2 0
25.2 0.2 0
25.5 0.2 0
25.8 0.2 0
26.1 0.2 0
26.4 0.2 0
26.7 0.2 0
27 0.2 0
27.3 0.2 0
27.6 0.2 0
27.9 0.2 0
28.2 0.2 0
28.5 0.2 0
28.8 0.2 0
29.1 0.2 0
29.4 0.2 0
29.7 0.2 0
30 0.2 0
0 0.3 0
0.3 0.3 0
0.6 0.3 0
0.9 0.3 0
1.2 0.3 0
1.5 0.3 0
1.8 0.3 0
2.1 0.3 0
2.4 0.3 0
2.7 0.3 0
3 0.3 0
3.3 0.3 0
3.6 0.3 0
3.9 0.3 0
4.2 0.3 0
4.5 0.3 0
4.8 0.3 0
5.1 0.3 0
5.4 0.3 0
5.7 0.3 0
6 0.3 0
6.3 0.3 0
6.6 0.3 0
6.9 0.3 0
7.2 0.3 0
7.5 0.3 0
7.8 0.3 0
8.1 0.3 0
8.4 0.3 0
8.7 0.3 0
9 0.3 0
9.3 0.3 0
9.6 0.3 0
9.9 0.3 0
10.2 0.3 0
10.5 0.3 0
10.8 0.3 0
11.1 0.3 0
11.4 0.3 0
11.7 0.3 0
12 0.3 0
12.3 0.3 0
12.6 0.3 0
12.9 0.3 0
13.2 0.3 0
13.5 0.3 0
13.8 0.3 0
14.1 0.3 0
14.4 0.3 0
14.7 0.3 0
15 0.3 0
15.3 0.3 0
15.6 0.3 0
15.9 0.3 0
16.2 0.3 0
16.5 0.3 0
16.8 0.3 0
17.1 0.3 0
17.4 0.3 0
17.7 0.3 0
18 0.3 0
18.3 0.3 0
18.6 0.3 0
18.9 0.3 0
19.2 0.3 0
19.5 0.3 0
19.8 0.3 0
20.1 0.3 0
20.4 0.3 0
20.7 0.3 0
21 0.3 0
21.3 0.3 0
21.6 0.3 0
21.9 0.3 0
22.2 0.3 0
22.5 0.3 0
22.8 0.3 0
23.1 0.3 0
23.4 0.3 0
23.7 0.3 0
24 0.3 0
24.3 0.3 0
24.6 0.3 0
24.9 0.3 0
25.2 0.3 0
25.5 0.3 0
25.8 0.3 0
26.1 0.3 0
26.4 0.3 0
26.7 0.3 0
27 0.3 0
27.3 0.3 0
27.6 0.3 0
27.9 0.3 0
28.2 0.3 0
28.5 0.3 0
28.8 0.3 0
29.1 0.3 0
29.4 0.3 0
29.7 0.3 0
30 0.3 0
0 0.4 0
0.3 0.4 0
0.6 0.4 0
0.9 0.4 0
1.2 0.4 0
1.5 0.4 0
1.8 0.4 0
2.1 0.4 0
2.4 0.4 0
2.7 0.4 0
3 0.4 0
3.3 0.4 0
3.6 0.4 0
3.9 0.4 0
4.2 0.4 0
4.5 0.4 0
4.8 0.4 0
5.1 0.4 0
5.4 0.4 0
5.7 0.4 0
6 0.4 0
6.3 0.4 0
6.6 0.4 0
6.9 0.4 0
7.2 0.4 0
7.5 0.4 0
7.8 0.4 0
8.1 0.4 0
8.4 0.4 0
8.7 0.4 0
9 0.4 0
9.3 0.4 0
9.6 0.4 0
9.9 0.4 0
10.2 0.4 0
10.5 0.4 0
10.8 0.4 0
11.1 0.4 0
11.4 0.4 0
11.7 0.4 0
12 0.4 0
12.3 0.4 0
12.6 0.4 0
12.9 0.4 0
13.2 0.4 0
13.5 0.4 0
13.8 0.4 0
14.1 0.4 0
14.4 0.4 0
14.7 0.4 0
15 0.4 0
15.3 0.4 0
15.6 0.4 0
15.9 0.4 0
16.2 0.4 0
16.5 0.4 0
16.8 0.4 0
17.1 0.4 0
17.4 0.4 0
17.7 0.4 0
18 0.4 0
18.3 0.4 0
18.6 0.4 0
18.9 0.4 0
19.2 0.4 0
19.5 0.4 0
19.8 0.4 0
20.1 0.4 0
20.4 0.4 0
20.7 0.4 0
21 0.4 0
21.3 0.4 0
21.6 0.4 0
21.9 0.4 0
22.2 0.4 0
22.5 0.4 0
22.8 0.4 0
23.1 0.4 0
23.4 0.4 0
23.7 0.4 0
24 0.4 0
24.3 0.4 0
24.6 0.4 0
24.9 0.4 0
25.2 0.4 0
25.5 0.4 0
25.8 0.4 0
26.1 0.4 0
26.4 0.4 0
26.7 0.4 0
27 0.4 0
27.3 0.4 0
27.6 0.4 0
27.9 0.4 0
28.2 0.4 0
28.5 0.4 0
28.8 0.4 0
29.1 0.4 0
29.4 0.4 0
29.7 0.4 0
30 0.4 0
0 0.5 0
0.3 0.5 0
0.6 0.5 0
0.9 0.5 0
1.2 0.5 0
1.5 0.5 0
1.8 0.5 0
2.1 0.5 0
2.4 0.5 0
2.7 0.5 0
3 0.5 0
3.3 0.5 0
3.6 0.5 0
3.9 0.5 0
4.2 0.5 0
4.5 0.5 0
4.8 0.5 0
5.1 0.5 0
5.4 0.5 0
5.7 0.5 0
6 0.5 0
6.3 0.5 0
6.6 0.5 0
6.9 0.5 0
7.2 0.5 0
7.5 0.5 0
7.8 0.5 0
8.1 0.5 0
8.4 0.5 0
8.7 0.5 0
9 0.5 0
9.3 0.5 0
9.6 0.5 0
9.9 0.5 0
10.2 0.5 0
10.5 0.5 0
10.8 0.5 0
11.1 0.5 0
11.4 0.5 0
11.7 0.5 0
12 0.5 0
12.3 0.5 0
12.6 0.5 0
12.9 0.5 0
13.2 0.5 0
13.5 0.5 0
13.8 0.5 0
14.1 0.5 0
14.4 0.5 0
14.7 0.5 0
15 0.5 0
15.3 0.5 0
15.6 0.5 0
15.9 0.5 0
16.2 0.5 0
16.5 0.5 0
16.8 0.5 0
17.1 0.5 0
17.4 0.5 0
17.7 0.5 0
18 0.5 0
18.3 0.5 0
18.6 0.5 0
18.9 0.5 0
19.2 0.5 0
19.5 0.5 0
19.8 0.5 0
20.1 0.5 0
20.4 0.5 0
20.7 0.5 0
21 0.5 0
21.3 0.5 0
21.6 0.5 0
21.9 0.5 0
22.2 0.5 0
22.5 0.5 0
22.8 0.5 0
23.1 0.5 0
23.4 0.5 0
23.7 0.5 0
24 0.5 0
24.3 0.5 0
24.6 0.5 0
24.9 0.5 0
25.2 0.5 0
25.5 0.5 0
25.8 0.5 0
26.1 0.5 0
26.4 0.5 0
26.7 0.5 0
27 0.5 0
27.3 0.5 0
27.6 0.5 0
27.9 0.5 0
28.2 0.5 0
28.5 0.5 0
28.8 0.5 0
29.1 0.5 0
29.4 0.5 0
29.7 0.5 0
30 0.5 0
0 0.6 0
0.3 0.6 0
0.6 0.6 0
0.9 0.6 0
1.2 0.6 0
1.5 0.6 0
1.8 0.6 0
2.1 0.6 0
2.4 0.6 0
2.7 0.6 0
3 0.6 0
3.3 0.6 0
3.6 0.6 0
3.9 0.6 0
4.2 0.6 0
4.5 0.6 0
4.8 0.6 0
5.1 0.6 0
5.4 0.6 0
5.7 0.6 0
6 0.6 0
6.3 0.6 0
6.6 0.6 0
6.9 0.6 0
7.2 0.6 0
7.5 0.6 0
7.8 0.6 0
8.1 0.6 0
8.4 0.6 0
8.7 0.6 0
9 0.6 0
9.3 0.6 0
9.6 0.6 0
9.9 0.6 0
10.2 0.6 0
10.5 0.6 0
10.8 0.6 0
11.1 0.6 0
11.4 0.6 0
11.7 0.6 0
12 0.6 0
12.3 0.6 0
12.6 0.6 0
12.9 0.6 0
13.2 0.6 0
13.5 0.6 0
13.8 0.6 0
14.1 0.6 0
14.4 0.6 0
14.7 0.6 0
15 0.6 0
15.3 0.6 0
15.6 0.6 0
15.9 0.6 0
16.2 0.6 0
16.5 0.6 0
16.8 0.6 0
17.1 0.6 0
17.4 0.6 0
17.7 0.6 0
18 0.6 0
18.3 0.6 0
18.6 0.6 0
18.9 0.6 0
19.2 0.6 0
19.5 0.6 0
19.8 0.6 0
20.1 0.6 0
20.4 0.6 0
20.7 0.6 0
21 0.6 0
21.3 0.6 0
21.6 0.6 0
21.9 0.6 0
22.2 0.6 0
22.5 0.6 0
22.8 0.6 0
23.1 0.6 0
23.4 0.6 0
23.7 0.6 0
24 0.6 0
24.3 0.6 0
24.6 0.6 0
24.9 0.6 0
25.2 0.6 0
25.5 0.6 0
25.8 0.6 0
26.1 0.6 0
26.4 0.6 0
26.7 0.6 0
27 0.6 0
27.3 0.6 0
27.6 0.6 0
27.9 0.6 0
28.2 0.6 0
28.5 0.6 0
28.8 0.6 0
29.1 0.6 0
29.4 0.6 0
29.7 0.6 0
30 0.6 0
0 0.7 0
0.3 0.7 0
0.6 0.7 0
0.9 0.7 0
1.2 0.7 0
1.5 0.7 0
1.8 0.7 0
2.1 0.7 0
2.4 0.7 0
2.7 0.7 0
3 0.7 0
3.3 0.7 0
3.6 0.7 0
3.9 0.7 0
4.2 0.7 0
4.5 0.7 0
4.8 0.7 0
5.1 0.7 0
5.4 0.7 0
5.7 0.7 0
6 0.7 0
6.3 0.7 0
6.6 0.7 0
6.9 0.7 0
7.2 0.7 0
7.5 0.7 0
7.8 0.7 0
8.1 0.7 0
8.4 0.7 0
8.7 0.7 0
9 0.7 0
9.3 0.7 0
9.6 0.7 0
9.9 0.7 0
10.2 0.7 0
10.5 0.7 0
10.8 0.7 0
11.1 0.7 0
11.4 0.7 0
11.7 0.7 0
12 0.7 0
12.3 0.7 0
12.6 0.7 0
12.9 0.7 0
13.2 0.7 0
13.5 0.7 0
13.8 0.7 0
14.1 0.7 0
14.4 0.7 0
14.7 0.7 0
15 0.7 0
15.3 0.7 0
15.6 0.7 0
15.9 0.7 0
16.2 0.7 0
16.5 0.7 0
16.8 0.7 0
17.1 0.7 0
17.4 0.7 0
17.7 0.7 0
18 0.7 0
18.3 0.7 0
18.6 0.7 0
18.9 0.7 0
19.2 0.7 0
19.5 0.7 0
19.8 0.7 0
20.1 0.7 0
20.4 0.7 0
20.7 0.7 0
21 0.7 0
21.3 0.7 0
21.6 0.7 0
21.9 0.7 0
22.2 0.7 0
22.5 0.7 0
22.8 0.7 0
23.1 0.7 0
23.4 0.7 0
23.7 0.7 0
24 0.7 0
24.3 0.7 0
24.6 0.7 0
24.9 0.7 0
25.2 0.7 0
25.5 0.7 0
25.8 0.7 0
26.1 0.7 0
26.4 0.7 0
26.7 0.7 0
27 0.7 0
27.3 0.7 0
27.6 0.7 0
27.9 0.7 0
28.2 0.7 0
28.5 0.7 0
28.8 0.7 0
29.1 0.7 0
29.4 0.7 0
29.7 0.7 0
30 0.7 0
0 0.8 0
0.3 0.8 0
0.6 0.8 0
0.9 0.8 0
1.2 0.8 0
1.5 0.8 0
1.8 0.8 0
2.1 0.8 0
2.4 0.8 0
2.7 0.8 0
3 0.8 0
3.3 0.8 0
3.6 0.8 0
3.9 0.8 0
4.2 0.8 0
4.5 0.8 0
4.8 0.8 0
5.1 0.8 0
5.4 0.8 0
5.7 0.8 0
6 0.8 0
6.3 0.8 0
6.6 0.8 0
6.9 0.8 0
7.2 0.8 0
7.5 0.8 0
7.8 0.8 0
8.1 0.8 0
8.4 0.8 0
8.7 0.8 0
9 0.8 0
9.3 0.8 0
9.6 0.8 0
9.9 0.8 0
10.2 0.8 0
10.5 0.8 0
10.8 0.8 0
11.1 0.8 0
11.4 0.8 0
11.7 0.8 0
12 0.8 0
12.3 0.8 0
12.6 0.8 0
12.9 0.8 0
13.2 0.8 0
13.5 0.8 0
13.8 0.8 0
14.1 0.8 0
14.4 0.8 0
14.7 0.8 0
15 0.8 0
15.3 0.8 0
15.6 0.8 0
15.9 0.8 0
16.2 0.8 0
16.5 0.8 0
16.8 0.8 0
17.1 0.8 0
17.4 0.8 0
17.7 0.8 0
18 0.8 0
18.3 0.8 0
18.6 0.8 0
18.9 0.8 0
19.2 0.8 0
19.5 0.8 0
19.8 0.8 0
20.1 0.8 0
20.4 0.8 0
20.7 0.8 0
21 0.8 0
21.3 0.8 0
21.6 0.8 0
21.9 0.8 0
22.2 0.8 0
22.5 0.8 0
22.8 0.8 0
23.1 0.8 0
23.4 0.8 0
23.7 0.8 0
24 0.8 0
24.3 0.8 0
24.6 0.8 0
24.9 0.8 0
25.2 0.8 0
25.5 0.8 0
25.8 0.8 0
26.1 0.8 0
26.4 0.8 0
26.7 0.8 0
27 0.8 0
27.3 0.8 0
27.6 0.8 0
27.9 0.8 0
28.2 0.8 0
28.5 0.8 0
28.8 0.8 0
29.1 0.8 0
29.4 0.8 0
29.7 0.8 0
30 0.8 0
0 0.9 0
0.3 0.9 0
0.6 0.9 0
0.9 0.9 0
1.2 0.9 0
1.5 0.9 0
1.8 0.9 0
2.1 0.9 0
2.4 0.9 0
2.7 0.9 0
3 0.9 0
3.3 0.9 0
3.6 0.9 0
3.9 0.9 0
4.2 0.9 0
4.5 0.9 0
4.8 0.9 0
5.1 0.9 0
5.4 0.9 0
5.7 0.9 0
6 0.9 0
6.3 0.9 0
6.6 0.9 0
6.9 0.9 0
7.2 0.9 0
7.5 0.9 0
7.8 0.9 0
8.1 0.9 0
8.4 0.9 0
8.7 0.9 0
9 0.9 0
9.3 0.9 0
9.6 0.9 0
9.9 0.9 0
10.2 0.9 0
10.5 0.9 0
10.8 0.9 0
11.1 0.9 0
11.4 0.9 0
11.7 0.9 0
12 0.9 0
12.3 0.9 0
12.6 0.9 0
12.9 0.9 0
13.2 0.9 0
13.5 0.9 0
13.8 0.9 0
14.1 0.9 0
14.4 0.9 0
14.7 0.9 0
15 0.9 0
15.3 0.9 0
15.6 0.9 0
15.9 0.9 0
16.2 0.9 0
16.5 0.9 0
16.8 0.9 0
17.1 0.9 0
17.4 0.9 0
17.7 0.9 0
18 0.9 0
18.3 0.9 0
18.6 0.9 0
18.9 0.9 0
19.2 0.9 0
19.5 0.9 0
19.8 0.9 0
20.1 0.9 0
20.4 0.9 0
20.7 0.9 0
21 0.9 0
21.3 0.9 0
21.6 0.9 0
21.9 0.9 0
22.2 0.9 0
22.5 0.9 0
22.8 0.9 0
23.1 0.9 0
23.4 0.9 0
23.7 0.9 0
24 0.9 0
24.3 0.9 0
24.6 0.9 0
24.9 0.9 0
25.2 0.9 0
25.5 0.9 0
25.8 0.9 0
26.1 0.9 0
26.4 0.9 0
26.7 0.9 0
27 0.9 0
27.3 0.9 0
27.6 0.9 0
27.9 0.9 0
28.2 0.9 0
28.5 0.9 0
28.8 0.9 0
29.1 0.9 0
29.4 0.9 0
29.7 0.9 0
30 0.9 0
0 1 0
0.3 1 0
0.6 1 0
0.9 1 0
1.2 1 0
1.5 1 0
1.8 1 0
2.1 1 0
2.4 1 0
2.7 1 0
3 1 0
3.3 1 0
3.6 1 0
3.9 1 0
4.2 1 0
4.5 1 0
4.8 1 0
5.1 1 0
5.4 1 0
5.7 1 0
6 1 0
6.3 1 0
6.6 1 0
6.9 1 0
7.2 1 0
7.5 1 0
7.8 1 0
8.1 1 0
8.4 1 0
8.7 1 0
9 1 0
9.3 1 0
9.6 1 0
9.9 1 0
10.2 1 0
10.5 1 0
10.8 1 0
11.1 1 0
11.4 1 0
11.7 1 0
12 1 0
12.3 1 0
12.6 1 0
12.9 1 0
13.2 1 0
13.5 1 0
13.8 1 0
14.1 1 0
14.4 1 0
14.7 1 0
15 1 0
15.3 1 0
15.6 1 0
15.9 1 0
16.2 1 0
16.5 1 0
16.8 1 0
17.1 1 0
17.4 1 0
17.7 1 0
18 1 0
18.3 1 0
18.6 1 0
18.9 1 0
19.2 1 0
19.5 1 0
19.8 1 0
20.1 1 0
20.4 1 0
20.7 1 0
21 1 0
21.3 1 0
21.6 1 0
21.9 1 0
22.2 1 0
22.5 1 0
22.8 1 0
23.1 1 0
23.4 1 0
23.7 1 0
24 1 0
24.3 1 0
24.6 1 0
24.9 1 0
25.2 1 0
25.5 1 0
25.8 1 0
26.1 1 0
26.4 1 0
26.7 1 0
27 1 0
27.3 1 0
27.6 1 0
27.9 1 0
28.2 1 0
28.5 1 0
28.8 1 0
29.1 1 0
29.4 1 0
29.7 1 0
30 1 0

POINT_DATA 1111

SCALARS u double
LOOKUP_TABLE default
-1
-0.891845
-0.780944
-0.691328
-0.629495
-0.593762
-0.576553
-0.569613
-0.56727
-0.566619
-0.566481
-0.566464
-0.566468
-0.56647
-0.566471
-0.566472
-0.566472
-0.566472
-0.566472
-0.566472
-0.566472
-0.566472
-0.566473
-0.566473
-0.566473
-0.566473
-0.566473
-0.566473
-0.566473
-0.566473
-0.566473
-0.566473
-0.566473
-0.566473
-0.566473
-0.566473
-0.566474
-0.566474
-0.566474
-0.566474
-0.566474
-0.566474
-0.566474
-0.566474
-0.566474
-0.566474
-0.566474
-0.566474
-0.566474
-0.566474
-0.566474
-0.566474
-0.566474
-0.566474
-0.566474
-0.566474
-0.566474
-0.566474
-0.566474
-0.566474
-0.566474
-0.566474
-0.566474
-0.566474
-0.566473
-0.566473
-0.566473
-0.566473
-0.566473
-0.566473
-0.566473
-0.566473
-0.566473
-0.566473
-0.566473
-0.566473
-0.566473
-0.566473
-0.566473
-0.566472
-0.566472
-0.566472
-0.566472
-0.566472
-0.566472
-0.566472
-0.566472
-0.566472
-0.566472
-0.566471
-0.566471
-0.566471
-0.566471
-0.566471
-0.566474
-0.566475
-0.566531
-0.566559
-0.5676
-0.5676
-1
1
0.891845
0.780944
0.691328
0.629495
0.593762
0.576553
0.569613
0.56727
0.566619
0.566481
0.566464
0.566468
0.56647
0.566471
0.566472
0.566472
0.566472
0.566472
0.566472
0.566472
0.566472
0.566473
0.566473
0.566473
0.566473
0.566473
0.566473
0.566473
0.566473
0.566473
0.566473
0.566473
0.566473
0.566473
0.566473
0.566474
0.566474
0.566474
0.566474
0.566474
0.566474
0.566474
0.566474
0.566474
0.566474
0.566474
0.566474
0.566474
0.566474
0.566474
0.566474
0.566474
0.566474
0.566474
0.566474
0.566474
0.566474
0.566474
0.566474
0.566474
0.566474
0.566474
0.566474
0.566473
0.566473
0.566473
0.566473
0.566473
0.566473
0.566473
0.566473
0.566473
0.566473
0.566473
0.566473
0.566473
0.566473
0.566473
0.566472
0.566472
0.566472
0.566472
0.566472
0.566472
0.566472
0.566472
0.566472
0.566472
0.566471
0.566471
0.566471
0.566471
0.566471
0.566474
0.566475
0.566531
0.566559
0.5676
0.5676
1
1
1.02991
1.03846
1.0378
1.03548
1.0343
1.03435
1.03495
1.03555
1.03594
1.03616
1.03625
1.03628
1.0363
1.0363
1.0363
1.0363
1.0363
1.0363
1.0363
1.0363
1.0363
1.0363
1.0363
1.0363
1.0363
1.0363
1.0363
1.0363
1.0363
1.0363
1.0363
1.0363
1.0363
1.0363
1.0363
1.0363
1.0363
1.0363
1.0363
1.0363
1.0363
1.0363
1.0363
1.0363
1.0363
1.0363
1.0363
1.0363
1.0363
1.0363
1.0363
1.0363
1.0363
1.0363
1.0363
1.0363
1.0363
1.0363
1.0363
1.0363
1.0363
1.0363
1.0363
1.0363
1.0363
1.0363
1.0363
1.0363
1.0363
1.0363
1.0363
1.0363
1.0363
1.0363
1.0363
1.0363
1.0363
1.0363
1.0363
1.0363
1.0363
1.0363
1.0363
1.0363
1.0363
1.0363
1.0363
1.0363
1.0363
1.03629
1.03629
1.03629
1.03629
1.03629
1.0363
1.03631
1.03633
1.03661
1.03661
1
1
1.03538
1.07431
1.10603
1.12764
1.13972
1.14517
1.14711
1.14761
1.14767
1.14764
1.14762
1.14761
1.1476
1.1476
1.1476
1.1476
1.1476
1.1476
1.1476
1.1476
1.1476
1.1476
1.1476
1.1476
1.1476
1.1476
1.1476
1.1476
1.1476
1.1476
1.1476
1.1476
1.1476
1.1476
1.1476
1.1476
1.1476
1.1476
1.1476
1.1476
1.1476
1.1476
1.1476
1.1476
1.1476
1.1476
1.1476
1.1476
1.1476
1.1476
1.1476
1.1476
1.1476
1.1476
1.1476
1.1476
1.1476
1.1476
1.1476
1.1476
1.1476
1.1476
1.1476
1.1476
1.1476
1.1476
1.1476
1.1476
1.1476
1.1476
1.1476
1.1476
1.1476
1.1476
1.1476
1.1476
1.1476
1.1476
1.1476
1.1476
1.1476
1.1476
1.1476
1.1476
1.1476
1.1476
1.1476
1.1476
1.1476
1.1476
1.1476
1.1476
1.1476
1.14759
1.14759
1.14757
1.14759
1.14716
1.14716
1
1
1.02937
1.07176
1.11051
1.13846
1.15465
1.1622
1.16499
1.16575
1.16585
1.16581
1.16578
1.16576
1.16575
1.16575
1.16575
1.16575
1.16575
1.16575
1.16575
1.16575
1.16575
1.16575
1.16575
1.16575
1.16575
1.16575
1.16575
1.16575
1.16575
1.16575
1.16575
1.16575
1.16575
1.16575
1.16575
1.16575
1.16575
1.16574
1.16574
1.16574
1.16574
1.16574
1.16574
1.16574
1.16574
1.16574
1.16574
1.16574
1.16574
1.16574
1.16574
1.16574
1.16574
1.16574
1.16574
1.16574
1.16574
1.16574
1.16574
1.16574
1.16574
1.16574
1.16574
1.16574
1.16574
1.16574
1.16574
1.16574
1.16574
1.16574
1.16574
1.16574
1.16574
1.16574
1.16574
1.16574
1.16574
1.16574
1.16574
1.16574
1.16574
1.16574
1.16574
1.16574
1.16574
1.16574
1.16574
1.16574
1.16574
1.16574
1.16574
1.16574
1.16574
1.16574
1.16573
1.1657
1.16567
1.16508
1.16508
1
1
1.027
1.06905
1.10868
1.13785
1.15513
1.16344
1.16667
1.16764
1.16783
1.16782
1.16779
1.16778
1.16777
1.16777
1.16777
1.16777
1.16777
1.16777
1.16777
1.16777
1.16777
1.16777
1.16777
1.16777
1.16777
1.16777
1.16777
1.16777
1.16777
1.16777
1.16777
1.16777
1.16777
1.16777
1.16777
1.16777
1.16777
1.16777
1.16777
1.16777
1.16777
1.16777
1.16777
1.16777
1.16777
1.16777
1.16777
1.16777
1.16777
1.16777
1.16777
1.16777
1.16777
1.16777
1.16777
1.16777
1.16777
1.16777
1.16776
1.16776
1.16776
1.16776
1.16776
1.16776
1.16776
1.16776
1.16776
1.16776
1.16776
1.16776
1.16776
1.16776
1.16776
1.16776
1.16776
1.16776
1.16776
1.16776
1.16776
1.16776
1.16776
1.16776
1.16776
1.16776
1.16776
1.16776
1.16776
1.16776
1.16776
1.16776
1.16776
1.16776
1.16776
1.16776
1.16775
1.16772
1.16766
1.16706
1.16706
1
1
1.02937
1.07176
1.11051
1.13846
1.15465
1.1622
1.16499
1.16575
1.16585
1.16581
1.16578
1.16576
1.16575
1.16575
1.16575
1.16575
1.16575
1.16575
1.16575
1.16575
1.16575
1.16575
1.16575
1.16575
1.16575
1.16575
1.16575
1.16575
1.16575
1.16575
1.16575
1.16575
1.16575
1.16575
1.16575
1.16575
1.16574
1.16574
1.16574
1.16574
1.16574
1.16574
1.16574
1.16574
1.16574
1.16574
1.16574
1.16574
1.16574
1.16574
1.16574
1.16574
1.16574
1.16574
1.16574
1.16574
1.16574
1.16574
1.16574
1.16574
1.16574
1.16574
1.16574
1.16574
1.16574
1.16574
1.16574
1.16574
1.16574
1.16574
1.16574
1.16574
1.16574
1.16574
1.16574
1.16574
1.16574
1.16574
1.16574
1.16574
1.16574
1.16574
1.16574
1.16574
1.16574
1.16574
1.16574
1.16574
1.16574
1.16574
1.16574
1.16574
1.16574
1.16574
1.16573
1.1657
1.16567
1.16508
1.16508
1
1
1.03538
1.07431
1.10603
1.12764
1.13972
1.14517
1.14711
1.14761
1.14767
1.14764
1.14762
1.14761
1.1476
1.1476
1.1476
1.1476
1.1476
1.1476
1.1476
1.1476
1.1476
1.1476
1.1476
1.1476
1.1476
1.1476
1.1476
1.1476
1.1476
1.1476
1.1476
1.1476
1.1476
1.1476
1.1476
1.1476
1.1476
1.1476
1.1476
1.1476
1.1476
1.1476
1.1476
1.1476
1.1476
1.1476
1.1476
1.1476
1.1476
1.1476
1.1476
1.1476
1.1476
1.1476
1.1476
1.1476
1.1476
1.1476
1.1476
1.1476
1.1476
1.1476
1.1476
1.1476
1.1476
1.1476
1.1476
1.1476
1.1476
1.1476
1.1476
1.1476
1.1476
1.1476
1.1476
1.1476
1.1476
1.1476
1.1476
1.1476
1.1476
1.1476
1.1476
1.1476
1.1476
1.1476
1.1476
1.1476
1.1476
1.1476
1.1476
1.1476
1.1476
1.14759
1.14759
1.14757
1.14759
1.14716
1.14716
1
1
1.02991
1.03846
1.0378
1.03548
1.0343
1.03435
1.03495
1.03555
1.03594
1.03615
1.03625
1.03628
1.03629
1.0363
1.0363
1.0363
1.0363
1.0363
1.0363
1.0363
1.0363
1.0363
1.0363
1.0363
1.0363
1.0363
1.0363
1.0363
1.0363
1.0363
1.0363
1.0363
1.0363
1.0363
1.0363
1.0363
1.0363
1.0363
1.0363
1.0363
1.0363
1.0363
1.0363
1.0363
1.0363
1.0363
1.0363
1.0363
1.0363
1.0363
1.0363
1.0363
1.0363
1.0363
1.0363
1.0363
1.0363
1.0363
1.0363
1.0363
1.0363
1.0363
1.0363
1.0363
1.0363
1.0363
1.0363
1.0363
1.0363
1.0363
1.0363
1.0363
1.0363
1.0363
1.0363
1.0363
1.0363
1.0363
1.0363
1.0363
1.0363
1.0363
1.0363
1.0363
1.0363
1.0363
1.03629
1.03629
1.03629
1.03629
1.03629
1.03629
1.03629
1.03629
1.0363
1.03631
1.03633
1.03661
1.03661
1
1
0.891845
0.780944
0.691328
0.629494
0.59376
0.576551
0.56961
0.567266
0.566616
0.566477
0.566461
0.566465
0.566467
0.566468
0.566469
0.566469
0.566469
0.566469
0.566469
0.566469
0.566469
0.566469
0.56647
0.56647
0.56647
0.56647
0.56647
0.56647
0.56647
0.56647
0.56647
0.56647
0.56647
0.566471
0.566471
0.566471
0.566471
0.566471
0.566471
0.566471
0.566471
0.566471
0.566471
0.566471
0.566471
0.566471
0.566471
0.566471
0.566471
0.566471
0.566471
0.566471
0.566472
0.566472
0.566472
0.566472
0.566472
0.566472
0.566472
0.566472
0.566472
0.566472
0.566472
0.566471
0.566471
0.566471
0.566471
0.566471
0.566471
0.566471
0.566471
0.566471
0.566471
0.566471
0.566471
0.566471
0.566471
0.566471
0.566471
0.566471
0.566471
0.566471
0.566471
0.56647
0.56647
0.56647
0.56647
0.56647
0.56647
0.56647
0.56647
0.56647
0.56647
0.566472
0.566474
0.566529
0.566558
0.567599
0.567599
1
-1
-0.891845
-0.780944
-0.691328
-0.629494
-0.59376
-0.576551
-0.56961
-0.567266
-0.566616
-0.566477
-0.566461
-0.566465
-0.566467
-0.566468
-0.566469
-0.566469
-0.566469
-0.566469
-0.566469
-0.566469
-0.566469
-0.566469
-0.56647
-0.56647
-0.56647
-0.56647
-0.56647
-0.56647
-0.56647
-0.56647
-0.56647
-0.56647
-0.56647
-0.566471
-0.566471
-0.566471
-0.566471
-0.566471
-0.566471
-0.566471
-0.566471
-0.566471
-0.566471
-0.566471
-0.566471
-0.566471
-0.566471
-0.566471
-0.566471
-0.566471
-0.566471
-0.566471
-0.566472
-0.566472
-0.566472
-0.566472
-0.566472
-0.566472
-0.566472
-0.566472
-0.566472
-0.566472
-0.566472
-0.566471
-0.566471
-0.566471
-0.566471
-0.566471
-0.566471
-0.566471
-0.566471
-0.566471
-0.566471
-0.566471
-0.566471
-0.566471
-0.566471
-0.566471
-0.566471
-0.566471
-0.566471
-0.566471
-0.566471
-0.56647
-0.56647
-0.56647
-0.56647
-0.56647
-0.56647
-0.56647
-0.56647
-0.56647
-0.56647
-0.566472
-0.566474
-0.566529
-0.566558
-0.567599
-0.567599
-1
