# vtk DataFile Version 2.0
FlowField
ASCII
DATASET STRUCTURED_GRID
DIMENSIONS 101 11 1 
POINTS 1111 double
0 0 0
0.3 0 0
0.6 0 0
0.9 0 0
1.2 0 0
1.5 0 0
1.8 0 0
2.1 0 0
2.4 0 0
2.7 0 0
3 0 0
3.3 0 0
3.6 0 0
3.9 0 0
4.2 0 0
4.5 0 0
4.8 0 0
5.1 0 0
5.4 0 0
5.7 0 0
6 0 0
6.3 0 0
6.6 0 0
6.9 0 0
7.2 0 0
7.5 0 0
7.8 0 0
8.1 0 0
8.4 0 0
8.7 0 0
9 0 0
9.3 0 0
9.6 0 0
9.9 0 0
10.2 0 0
10.5 0 0
10.8 0 0
11.1 0 0
11.4 0 0
11.7 0 0
12 0 0
12.3 0 0
12.6 0 0
12.9 0 0
13.2 0 0
13.5 0 0
13.8 0 0
14.1 0 0
14.4 0 0
14.7 0 0
15 0 0
15.3 0 0
15.6 0 0
15.9 0 0
16.2 0 0
16.5 0 0
16.8 0 0
17.1 0 0
17.4 0 0
17.7 0 0
18 0 0
18.3 0 0
18.6 0 0
18.9 0 0
19.2 0 0
19.5 0 0
19.8 0 0
20.1 0 0
20.4 0 0
20.7 0 0
21 0 0
21.3 0 0
21.6 0 0
21.9 0 0
22.2 0 0
22.5 0 0
22.8 0 0
23.1 0 0
23.4 0 0
23.7 0 0
24 0 0
24.3 0 0
24.6 0 0
24.9 0 0
25.2 0 0
25.5 0 0
25.8 0 0
26.1 0 0
26.4 0 0
26.7 0 0
27 0 0
27.3 0 0
27.6 0 0
27.9 0 0
28.2 0 0
28.5 0 0
28.8 0 0
29.1 0 0
29.4 0 0
29.7 0 0
30 0 0
0 0.1 0
0.3 0.1 0
0.6 0.1 0
0.9 0.1 0
1.2 0.1 0
1.5 0.1 0
1.8 0.1 0
2.1 0.1 0
2.4 0.1 0
2.7 0.1 0
3 0.1 0
3.3 0.1 0
3.6 0.1 0
3.9 0.1 0
4.2 0.1 0
4.5 0.1 0
4.8 0.1 0
5.1 0.1 0
5.4 0.1 0
5.7 0.1 0
6 0.1 0
6.3 0.1 0
6.6 0.1 0
6.9 0.1 0
7.2 0.1 0
7.5 0.1 0
7.8 0.1 0
8.1 0.1 0
8.4 0.1 0
8.7 0.1 0
9 0.1 0
9.3 0.1 0
9.6 0.1 0
9.9 0.1 0
10.2 0.1 0
10.5 0.1 0
10.8 0.1 0
11.1 0.1 0
11.4 0.1 0
11.7 0.1 0
12 0.1 0
12.3 0.1 0
12.6 0.1 0
12.9 0.1 0
13.2 0.1 0
13.5 0.1 0
13.8 0.1 0
14.1 0.1 0
14.4 0.1 0
14.7 0.1 0
15 0.1 0
15.3 0.1 0
15.6 0.1 0
15.9 0.1 0
16.2 0.1 0
16.5 0.1 0
16.8 0.1 0
17.1 0.1 0
17.4 0.1 0
17.7 0.1 0
18 0.1 0
18.3 0.1 0
18.6 0.1 0
18.9 0.1 0
19.2 0.1 0
19.5 0.1 0
19.8 0.1 0
20.1 0.1 0
20.4 0.1 0
20.7 0.1 0
21 0.1 0
21.3 0.1 0
21.6 0.1 0
21.9 0.1 0
22.2 0.1 0
22.5 0.1 0
22.8 0.1 0
23.1 0.1 0
23.4 0.1 0
23.7 0.1 0
24 0.1 0
24.3 0.1 0
24.6 0.1 0
24.9 0.1 0
25.2 0.1 0
25.5 0.1 0
25.8 0.1 0
26.1 0.1 0
26.4 0.1 0
26.7 0.1 0
27 0.1 0
27.3 0.1 0
27.6 0.1 0
27.9 0.1 0
28.2 0.1 0
28.5 0.1 0
28.8 0.1 0
29.1 0.1 0
29.4 0.1 0
29.7 0.1 0
30 0.1 0
0 0.2 0
0.3 0.2 0
0.6 0.2 0
0.9 0.2 0
1.2 0.2 0
1.5 0.2 0
1.8 0.2 0
2.1 0.2 0
2.4 0.2 0
2.7 0.2 0
3 0.2 0
3.3 0.2 0
3.6 0.2 0
3.9 0.2 0
4.2 0.2 0
4.5 0.2 0
4.8 0.2 0
5.1 0.2 0
5.4 0.2 0
5.7 0.2 0
6 0.2 0
6.3 0.2 0
6.6 0.2 0
6.9 0.2 0
7.2 0.2 0
7.5 0.2 0
7.8 0.2 0
8.1 0.2 0
8.4 0.2 0
8.7 0.2 0
9 0.2 0
9.3 0.2 0
9.6 0.2 0
9.9 0.2 0
10.2 0.2 0
10.5 0.2 0
10.8 0.2 0
11.1 0.2 0
11.4 0.2 0
11.7 0.2 0
12 0.2 0
12.3 0.2 0
12.6 0.2 0
12.9 0.2 0
13.2 0.2 0
13.5 0.2 0
13.8 0.2 0
14.1 0.2 0
14.4 0.2 0
14.7 0.2 0
15 0.2 0
15.3 0.2 0
15.6 0.2 0
15.9 0.2 0
16.2 0.2 0
16.5 0.2 0
16.8 0.2 0
17.1 0.2 0
17.4 0.2 0
17.7 0.2 0
18 0.2 0
18.3 0.2 0
18.6 0.2 0
18.9 0.2 0
19.2 0.2 0
19.5 0.2 0
19.8 0.2 0
20.1 0.2 0
20.4 0.2 0
20.7 0.2 0
21 0.2 0
21.3 0.2 0
21.6 0.2 0
21.9 0.2 0
22.2 0.2 0
22.5 0.2 0
22.8 0.2 0
23.1 0.2 0
23.4 0.2 0
23.7 0.2 0
24 0.2 0
24.3 0.2 0
24.6 0.2 0
24.9 0.2 0
25.2 0.2 0
25.5 0.2 0
25.8 0.2 0
26.1 0.2 0
26.4 0.2 0
26.7 0.2 0
27 0.2 0
27.3 0.2 0
27.6 0.2 0
27.9 0.2 0
28.2 0.2 0
28.5 0.2 0
28.8 0.2 0
29.1 0.2 0
29.4 0.2 0
29.7 0.2 0
30 0.2 0
0 0.3 0
0.3 0.3 0
0.6 0.3 0
0.9 0.3 0
1.2 0.3 0
1.5 0.3 0
1.8 0.3 0
2.1 0.3 0
2.4 0.3 0
2.7 0.3 0
3 0.3 0
3.3 0.3 0
3.6 0.3 0
3.9 0.3 0
4.2 0.3 0
4.5 0.3 0
4.8 0.3 0
5.1 0.3 0
5.4 0.3 0
5.7 0.3 0
6 0.3 0
6.3 0.3 0
6.6 0.3 0
6.9 0.3 0
7.2 0.3 0
7.5 0.3 0
7.8 0.3 0
8.1 0.3 0
8.4 0.3 0
8.7 0.3 0
9 0.3 0
9.3 0.3 0
9.6 0.3 0
9.9 0.3 0
10.2 0.3 0
10.5 0.3 0
10.8 0.3 0
11.1 0.3 0
11.4 0.3 0
11.7 0.3 0
12 0.3 0
12.3 0.3 0
12.6 0.3 0
12.9 0.3 0
13.2 0.3 0
13.5 0.3 0
13.8 0.3 0
14.1 0.3 0
14.4 0.3 0
14.7 0.3 0
15 0.3 0
15.3 0.3 0
15.6 0.3 0
15.9 0.3 0
16.2 0.3 0
16.5 0.3 0
16.8 0.3 0
17.1 0.3 0
17.4 0.3 0
17.7 0.3 0
18 0.3 0
18.3 0.3 0
18.6 0.3 0
18.9 0.3 0
19.2 0.3 0
19.5 0.3 0
19.8 0.3 0
20.1 0.3 0
20.4 0.3 0
20.7 0.3 0
21 0.3 0
21.3 0.3 0
21.6 0.3 0
21.9 0.3 0
22.2 0.3 0
22.5 0.3 0
22.8 0.3 0
23.1 0.3 0
23.4 0.3 0
23.7 0.3 0
24 0.3 0
24.3 0.3 0
24.6 0.3 0
24.9 0.3 0
25.2 0.3 0
25.5 0.3 0
25.8 0.3 0
26.1 0.3 0
26.4 0.3 0
26.7 0.3 0
27 0.3 0
27.3 0.3 0
27.6 0.3 0
27.9 0.3 0
28.2 0.3 0
28.5 0.3 0
28.8 0.3 0
29.1 0.3 0
29.4 0.3 0
29.7 0.3 0
30 0.3 0
0 0.4 0
0.3 0.4 0
0.6 0.4 0
0.9 0.4 0
1.2 0.4 0
1.5 0.4 0
1.8 0.4 0
2.1 0.4 0
2.4 0.4 0
2.7 0.4 0
3 0.4 0
3.3 0.4 0
3.6 0.4 0
3.9 0.4 0
4.2 0.4 0
4.5 0.4 0
4.8 0.4 0
5.1 0.4 0
5.4 0.4 0
5.7 0.4 0
6 0.4 0
6.3 0.4 0
6.6 0.4 0
6.9 0.4 0
7.2 0.4 0
7.5 0.4 0
7.8 0.4 0
8.1 0.4 0
8.4 0.4 0
8.7 0.4 0
9 0.4 0
9.3 0.4 0
9.6 0.4 0
9.9 0.4 0
10.2 0.4 0
10.5 0.4 0
10.8 0.4 0
11.1 0.4 0
11.4 0.4 0
11.7 0.4 0
12 0.4 0
12.3 0.4 0
12.6 0.4 0
12.9 0.4 0
13.2 0.4 0
13.5 0.4 0
13.8 0.4 0
14.1 0.4 0
14.4 0.4 0
14.7 0.4 0
15 0.4 0
15.3 0.4 0
15.6 0.4 0
15.9 0.4 0
16.2 0.4 0
16.5 0.4 0
16.8 0.4 0
17.1 0.4 0
17.4 0.4 0
17.7 0.4 0
18 0.4 0
18.3 0.4 0
18.6 0.4 0
18.9 0.4 0
19.2 0.4 0
19.5 0.4 0
19.8 0.4 0
20.1 0.4 0
20.4 0.4 0
20.7 0.4 0
21 0.4 0
21.3 0.4 0
21.6 0.4 0
21.9 0.4 0
22.2 0.4 0
22.5 0.4 0
22.8 0.4 0
23.1 0.4 0
23.4 0.4 0
23.7 0.4 0
24 0.4 0
24.3 0.4 0
24.6 0.4 0
24.9 0.4 0
25.2 0.4 0
25.5 0.4 0
25.8 0.4 0
26.1 0.4 0
26.4 0.4 0
26.7 0.4 0
27 0.4 0
27.3 0.4 0
27.6 0.4 0
27.9 0.4 0
28.2 0.4 0
28.5 0.4 0
28.8 0.4 0
29.1 0.4 0
29.4 0.4 0
29.7 0.4 0
30 0.4 0
0 0.5 0
0.3 0.5 0
0.6 0.5 0
0.9 0.5 0
1.2 0.5 0
1.5 0.5 0
1.8 0.5 0
2.1 0.5 0
2.4 0.5 0
2.7 0.5 0
3 0.5 0
3.3 0.5 0
3.6 0.5 0
3.9 0.5 0
4.2 0.5 0
4.5 0.5 0
4.8 0.5 0
5.1 0.5 0
5.4 0.5 0
5.7 0.5 0
6 0.5 0
6.3 0.5 0
6.6 0.5 0
6.9 0.5 0
7.2 0.5 0
7.5 0.5 0
7.8 0.5 0
8.1 0.5 0
8.4 0.5 0
8.7 0.5 0
9 0.5 0
9.3 0.5 0
9.6 0.5 0
9.9 0.5 0
10.2 0.5 0
10.5 0.5 0
10.8 0.5 0
11.1 0.5 0
11.4 0.5 0
11.7 0.5 0
12 0.5 0
12.3 0.5 0
12.6 0.5 0
12.9 0.5 0
13.2 0.5 0
13.5 0.5 0
13.8 0.5 0
14.1 0.5 0
14.4 0.5 0
14.7 0.5 0
15 0.5 0
15.3 0.5 0
15.6 0.5 0
15.9 0.5 0
16.2 0.5 0
16.5 0.5 0
16.8 0.5 0
17.1 0.5 0
17.4 0.5 0
17.7 0.5 0
18 0.5 0
18.3 0.5 0
18.6 0.5 0
18.9 0.5 0
19.2 0.5 0
19.5 0.5 0
19.8 0.5 0
20.1 0.5 0
20.4 0.5 0
20.7 0.5 0
21 0.5 0
21.3 0.5 0
21.6 0.5 0
21.9 0.5 0
22.2 0.5 0
22.5 0.5 0
22.8 0.5 0
23.1 0.5 0
23.4 0.5 0
23.7 0.5 0
24 0.5 0
24.3 0.5 0
24.6 0.5 0
24.9 0.5 0
25.2 0.5 0
25.5 0.5 0
25.8 0.5 0
26.1 0.5 0
26.4 0.5 0
26.7 0.5 0
27 0.5 0
27.3 0.5 0
27.6 0.5 0
27.9 0.5 0
28.2 0.5 0
28.5 0.5 0
28.8 0.5 0
29.1 0.5 0
29.4 0.5 0
29.7 0.5 0
30 0.5 0
0 0.6 0
0.3 0.6 0
0.6 0.6 0
0.9 0.6 0
1.2 0.6 0
1.5 0.6 0
1.8 0.6 0
2.1 0.6 0
2.4 0.6 0
2.7 0.6 0
3 0.6 0
3.3 0.6 0
3.6 0.6 0
3.9 0.6 0
4.2 0.6 0
4.5 0.6 0
4.8 0.6 0
5.1 0.6 0
5.4 0.6 0
5.7 0.6 0
6 0.6 0
6.3 0.6 0
6.6 0.6 0
6.9 0.6 0
7.2 0.6 0
7.5 0.6 0
7.8 0.6 0
8.1 0.6 0
8.4 0.6 0
8.7 0.6 0
9 0.6 0
9.3 0.6 0
9.6 0.6 0
9.9 0.6 0
10.2 0.6 0
10.5 0.6 0
10.8 0.6 0
11.1 0.6 0
11.4 0.6 0
11.7 0.6 0
12 0.6 0
12.3 0.6 0
12.6 0.6 0
12.9 0.6 0
13.2 0.6 0
13.5 0.6 0
13.8 0.6 0
14.1 0.6 0
14.4 0.6 0
14.7 0.6 0
15 0.6 0
15.3 0.6 0
15.6 0.6 0
15.9 0.6 0
16.2 0.6 0
16.5 0.6 0
16.8 0.6 0
17.1 0.6 0
17.4 0.6 0
17.7 0.6 0
18 0.6 0
18.3 0.6 0
18.6 0.6 0
18.9 0.6 0
19.2 0.6 0
19.5 0.6 0
19.8 0.6 0
20.1 0.6 0
20.4 0.6 0
20.7 0.6 0
21 0.6 0
21.3 0.6 0
21.6 0.6 0
21.9 0.6 0
22.2 0.6 0
22.5 0.6 0
22.8 0.6 0
23.1 0.6 0
23.4 0.6 0
23.7 0.6 0
24 0.6 0
24.3 0.6 0
24.6 0.6 0
24.9 0.6 0
25.2 0.6 0
25.5 0.6 0
25.8 0.6 0
26.1 0.6 0
26.4 0.6 0
26.7 0.6 0
27 0.6 0
27.3 0.6 0
27.6 0.6 0
27.9 0.6 0
28.2 0.6 0
28.5 0.6 0
28.8 0.6 0
29.1 0.6 0
29.4 0.6 0
29.7 0.6 0
30 0.6 0
0 0.7 0
0.3 0.7 0
0.6 0.7 0
0.9 0.7 0
1.2 0.7 0
1.5 0.7 0
1.8 0.7 0
2.1 0.7 0
2.4 0.7 0
2.7 0.7 0
3 0.7 0
3.3 0.7 0
3.6 0.7 0
3.9 0.7 0
4.2 0.7 0
4.5 0.7 0
4.8 0.7 0
5.1 0.7 0
5.4 0.7 0
5.7 0.7 0
6 0.7 0
6.3 0.7 0
6.6 0.7 0
6.9 0.7 0
7.2 0.7 0
7.5 0.7 0
7.8 0.7 0
8.1 0.7 0
8.4 0.7 0
8.7 0.7 0
9 0.7 0
9.3 0.7 0
9.6 0.7 0
9.9 0.7 0
10.2 0.7 0
10.5 0.7 0
10.8 0.7 0
11.1 0.7 0
11.4 0.7 0
11.7 0.7 0
12 0.7 0
12.3 0.7 0
12.6 0.7 0
12.9 0.7 0
13.2 0.7 0
13.5 0.7 0
13.8 0.7 0
14.1 0.7 0
14.4 0.7 0
14.7 0.7 0
15 0.7 0
15.3 0.7 0
15.6 0.7 0
15.9 0.7 0
16.2 0.7 0
16.5 0.7 0
16.8 0.7 0
17.1 0.7 0
17.4 0.7 0
17.7 0.7 0
18 0.7 0
18.3 0.7 0
18.6 0.7 0
18.9 0.7 0
19.2 0.7 0
19.5 0.7 0
19.8 0.7 0
20.1 0.7 0
20.4 0.7 0
20.7 0.7 0
21 0.7 0
21.3 0.7 0
21.6 0.7 0
21.9 0.7 0
22.2 0.7 0
22.5 0.7 0
22.8 0.7 0
23.1 0.7 0
23.4 0.7 0
23.7 0.7 0
24 0.7 0
24.3 0.7 0
24.6 0.7 0
24.9 0.7 0
25.2 0.7 0
25.5 0.7 0
25.8 0.7 0
26.1 0.7 0
26.4 0.7 0
26.7 0.7 0
27 0.7 0
27.3 0.7 0
27.6 0.7 0
27.9 0.7 0
28.2 0.7 0
28.5 0.7 0
28.8 0.7 0
29.1 0.7 0
29.4 0.7 0
29.7 0.7 0
30 0.7 0
0 0.8 0
0.3 0.8 0
0.6 0.8 0
0.9 0.8 0
1.2 0.8 0
1.5 0.8 0
1.8 0.8 0
2.1 0.8 0
2.4 0.8 0
2.7 0.8 0
3 0.8 0
3.3 0.8 0
3.6 0.8 0
3.9 0.8 0
4.2 0.8 0
4.5 0.8 0
4.8 0.8 0
5.1 0.8 0
5.4 0.8 0
5.7 0.8 0
6 0.8 0
6.3 0.8 0
6.6 0.8 0
6.9 0.8 0
7.2 0.8 0
7.5 0.8 0
7.8 0.8 0
8.1 0.8 0
8.4 0.8 0
8.7 0.8 0
9 0.8 0
9.3 0.8 0
9.6 0.8 0
9.9 0.8 0
10.2 0.8 0
10.5 0.8 0
10.8 0.8 0
11.1 0.8 0
11.4 0.8 0
11.7 0.8 0
12 0.8 0
12.3 0.8 0
12.6 0.8 0
12.9 0.8 0
13.2 0.8 0
13.5 0.8 0
13.8 0.8 0
14.1 0.8 0
14.4 0.8 0
14.7 0.8 0
15 0.8 0
15.3 0.8 0
15.6 0.8 0
15.9 0.8 0
16.2 0.8 0
16.5 0.8 0
16.8 0.8 0
17.1 0.8 0
17.4 0.8 0
17.7 0.8 0
18 0.8 0
18.3 0.8 0
18.6 0.8 0
18.9 0.8 0
19.2 0.8 0
19.5 0.8 0
19.8 0.8 0
20.1 0.8 0
20.4 0.8 0
20.7 0.8 0
21 0.8 0
21.3 0.8 0
21.6 0.8 0
21.9 0.8 0
22.2 0.8 0
22.5 0.8 0
22.8 0.8 0
23.1 0.8 0
23.4 0.8 0
23.7 0.8 0
24 0.8 0
24.3 0.8 0
24.6 0.8 0
24.9 0.8 0
25.2 0.8 0
25.5 0.8 0
25.8 0.8 0
26.1 0.8 0
26.4 0.8 0
26.7 0.8 0
27 0.8 0
27.3 0.8 0
27.6 0.8 0
27.9 0.8 0
28.2 0.8 0
28.5 0.8 0
28.8 0.8 0
29.1 0.8 0
29.4 0.8 0
29.7 0.8 0
30 0.8 0
0 0.9 0
0.3 0.9 0
0.6 0.9 0
0.9 0.9 0
1.2 0.9 0
1.5 0.9 0
1.8 0.9 0
2.1 0.9 0
2.4 0.9 0
2.7 0.9 0
3 0.9 0
3.3 0.9 0
3.6 0.9 0
3.9 0.9 0
4.2 0.9 0
4.5 0.9 0
4.8 0.9 0
5.1 0.9 0
5.4 0.9 0
5.7 0.9 0
6 0.9 0
6.3 0.9 0
6.6 0.9 0
6.9 0.9 0
7.2 0.9 0
7.5 0.9 0
7.8 0.9 0
8.1 0.9 0
8.4 0.9 0
8.7 0.9 0
9 0.9 0
9.3 0.9 0
9.6 0.9 0
9.9 0.9 0
10.2 0.9 0
10.5 0.9 0
10.8 0.9 0
11.1 0.9 0
11.4 0.9 0
11.7 0.9 0
12 0.9 0
12.3 0.9 0
12.6 0.9 0
12.9 0.9 0
13.2 0.9 0
13.5 0.9 0
13.8 0.9 0
14.1 0.9 0
14.4 0.9 0
14.7 0.9 0
15 0.9 0
15.3 0.9 0
15.6 0.9 0
15.9 0.9 0
16.2 0.9 0
16.5 0.9 0
16.8 0.9 0
17.1 0.9 0
17.4 0.9 0
17.7 0.9 0
18 0.9 0
18.3 0.9 0
18.6 0.9 0
18.9 0.9 0
19.2 0.9 0
19.5 0.9 0
19.8 0.9 0
20.1 0.9 0
20.4 0.9 0
20.7 0.9 0
21 0.9 0
21.3 0.9 0
21.6 0.9 0
21.9 0.9 0
22.2 0.9 0
22.5 0.9 0
22.8 0.9 0
23.1 0.9 0
23.4 0.9 0
23.7 0.9 0
24 0.9 0
24.3 0.9 0
24.6 0.9 0
24.9 0.9 0
25.2 0.9 0
25.5 0.9 0
25.8 0.9 0
26.1 0.9 0
26.4 0.9 0
26.7 0.9 0
27 0.9 0
27.3 0.9 0
27.6 0.9 0
27.9 0.9 0
28.2 0.9 0
28.5 0.9 0
28.8 0.9 0
29.1 0.9 0
29.4 0.9 0
29.7 0.9 0
30 0.9 0
0 1 0
0.3 1 0
0.6 1 0
0.9 1 0
1.2 1 0
1.5 1 0
1.8 1 0
2.1 1 0
2.4 1 0
2.7 1 0
3 1 0
3.3 1 0
3.6 1 0
3.9 1 0
4.2 1 0
4.5 1 0
4.8 1 0
5.1 1 0
5.4 1 0
5.7 1 0
6 1 0
6.3 1 0
6.6 1 0
6.9 1 0
7.2 1 0
7.5 1 0
7.8 1 0
8.1 1 0
8.4 1 0
8.7 1 0
9 1 0
9.3 1 0
9.6 1 0
9.9 1 0
10.2 1 0
10.5 1 0
10.8 1 0
11.1 1 0
11.4 1 0
11.7 1 0
12 1 0
12.3 1 0
12.6 1 0
12.9 1 0
13.2 1 0
13.5 1 0
13.8 1 0
14.1 1 0
14.4 1 0
14.7 1 0
15 1 0
15.3 1 0
15.6 1 0
15.9 1 0
16.2 1 0
16.5 1 0
16.8 1 0
17.1 1 0
17.4 1 0
17.7 1 0
18 1 0
18.3 1 0
18.6 1 0
18.9 1 0
19.2 1 0
19.5 1 0
19.8 1 0
20.1 1 0
20.4 1 0
20.7 1 0
21 1 0
21.3 1 0
21.6 1 0
21.9 1 0
22.2 1 0
22.5 1 0
22.8 1 0
23.1 1 0
23.4 1 0
23.7 1 0
24 1 0
24.3 1 0
24.6 1 0
24.9 1 0
25.2 1 0
25.5 1 0
25.8 1 0
26.1 1 0
26.4 1 0
26.7 1 0
27 1 0
27.3 1 0
27.6 1 0
27.9 1 0
28.2 1 0
28.5 1 0
28.8 1 0
29.1 1 0
29.4 1 0
29.7 1 0
30 1 0

POINT_DATA 1111

SCALARS phi double
LOOKUP_TABLE default
1
1
1
0.999994
0.999972
0.999915
0.999796
0.999582
0.99924
0.998736
0.998042
0.997136
0.996
0.994626
0.993006
0.991141
0.989031
0.986684
0.984114
0.981338
0.978364
0.97516
0.971635
0.967616
0.962864
0.957096
0.950025
0.941399
0.931029
0.918798
0.904667
0.888659
0.870856
0.851379
0.830379
0.808027
0.784506
0.760004
0.734708
0.708799
0.682451
0.655826
0.629075
0.602334
0.575724
0.549355
0.52332
0.497701
0.472567
0.447975
0.423973
0.400597
0.377878
0.355837
0.33449
0.313847
0.293913
0.274689
0.256175
0.238367
0.221258
0.204843
0.189115
0.174067
0.159693
0.145989
0.13295
0.120575
0.108862
0.0978133
0.0874289
0.0777109
0.0686607
0.0602782
0.0525613
0.0455045
0.0390983
0.0333284
0.0281754
0.0236145
0.0196156
0.016144
0.0131611
0.0106253
0.00849291
0.00671982
0.00526224
0.00407784
0.00312667
0.00237182
0.00177987
0.00132122
0.00097011
0.000704542
0.000506088
0.000359549
0.000252704
0.00017541
0.000121663
7.75742e-05
7.75742e-05
1
1
1
0.999994
0.999972
0.999915
0.999796
0.999582
0.99924
0.998736
0.998042
0.997136
0.996
0.994626
0.993006
0.991141
0.989031
0.986684
0.984114
0.981338
0.978364
0.97516
0.971635
0.967616
0.962864
0.957096
0.950025
0.941399
0.931029
0.918798
0.904667
0.888659
0.870856
0.851379
0.830379
0.808027
0.784506
0.760004
0.734708
0.708799
0.682451
0.655826
0.629075
0.602334
0.575724
0.549355
0.52332
0.497701
0.472567
0.447975
0.423973
0.400597
0.377878
0.355837
0.33449
0.313847
0.293913
0.274689
0.256175
0.238367
0.221258
0.204843
0.189115
0.174067
0.159693
0.145989
0.13295
0.120575
0.108862
0.0978133
0.0874289
0.0777109
0.0686607
0.0602782
0.0525613
0.0455045
0.0390983
0.0333284
0.0281754
0.0236145
0.0196156
0.016144
0.0131611
0.0106253
0.00849291
0.00671982
0.00526224
0.00407784
0.00312667
0.00237182
0.00177987
0.00132122
0.00097011
0.000704542
0.000506088
0.000359549
0.000252704
0.00017541
0.000121663
7.75742e-05
7.75742e-05
0.999997
1
0.999982
0.999903
0.99973
0.999422
0.998942
0.998256
0.99734
0.996174
0.994748
0.993059
0.991109
0.988904
0.986455
0.983772
0.98087
0.977761
0.974463
0.970991
0.967362
0.963588
0.959665
0.955564
0.95122
0.946534
0.941375
0.935592
0.929024
0.921523
0.912955
0.903218
0.892241
0.879984
0.866443
0.851642
0.835631
0.818481
0.800279
0.781127
0.761133
0.740413
0.719082
0.697256
0.675047
0.652561
0.629902
0.607162
0.584429
0.561782
0.539291
0.51702
0.495024
0.473349
0.452037
0.431121
0.410628
0.390578
0.370987
0.351864
0.333215
0.315039
0.297334
0.280092
0.263304
0.246958
0.231042
0.215545
0.200457
0.185771
0.171488
0.157613
0.144161
0.131153
0.11862
0.1066
0.0951367
0.0842752
0.0740618
0.064539
0.0557426
0.0476986
0.0404213
0.0339119
0.0281577
0.0231326
0.018799
0.0151092
0.012008
0.00943542
0.0073294
0.00562801
0.00427163
0.00320456
0.00237614
0.00174132
0.00126163
0.000901895
0.000644595
0.000422093
0.000422093
1
0.999999
0.99946
0.998318
0.996569
0.994236
0.991359
0.987986
0.984174
0.979985
0.975479
0.970714
0.965744
0.960613
0.955362
0.950025
0.944629
0.9392
0.933755
0.928313
0.922885
0.917485
0.912118
0.906788
0.901488
0.8962
0.890894
0.885526
0.880037
0.87436
0.86842
0.862138
0.855438
0.848245
0.840497
0.832136
0.82312
0.813418
0.803012
0.791894
0.78007
0.767558
0.754382
0.740576
0.726181
0.711242
0.695809
0.679934
0.66367
0.647073
0.630195
0.613088
0.595805
0.578392
0.560895
0.543355
0.525811
0.508296
0.49084
0.473468
0.4562
0.439049
0.422025
0.40513
0.388361
0.371706
0.355148
0.338664
0.322227
0.305804
0.289367
0.272888
0.256351
0.239752
0.223105
0.206448
0.189841
0.173368
0.157136
0.141269
0.125902
0.111174
0.0972157
0.0841484
0.0720706
0.0610552
0.0511459
0.0423558
0.0346688
0.0280423
0.0224121
0.0176969
0.0138048
0.010638
0.0080981
0.00608931
0.00452468
0.00331471
0.0024283
0.00162909
0.00162909
1.00152
0.998478
0.989845
0.978523
0.966041
0.953192
0.940393
0.927875
0.915766
0.904141
0.893035
0.882463
0.87242
0.862891
0.853856
0.845287
0.837157
0.829439
0.822103
0.815125
0.808478
0.80214
0.796088
0.790302
0.784762
0.779448
0.77434
0.769413
0.764641
0.759995
0.755441
0.750941
0.746455
0.74194
0.737351
0.732644
0.727774
0.7227
0.717382
0.711783
0.705871
0.699619
0.693002
0.686003
0.67861
0.670813
0.662609
0.653998
0.644985
0.635578
0.625788
0.615628
0.605114
0.594264
0.583096
0.571629
0.559883
0.547878
0.535633
0.523164
0.510488
0.497618
0.484564
0.471332
0.457922
0.444326
0.43053
0.416509
0.402226
0.387637
0.372688
0.357318
0.341469
0.325089
0.308142
0.290613
0.272523
0.253929
0.234931
0.215669
0.196324
0.177102
0.158231
0.139944
0.122464
0.105994
0.0907013
0.0767153
0.0641177
0.0529439
0.0431844
0.0347903
0.0276806
0.0217497
0.0168765
0.012931
0.00978791
0.00730095
0.00544644
0.00372221
0.00372221
1.04956
0.950436
0.872951
0.815234
0.771993
0.739004
0.713323
0.692935
0.676456
0.662919
0.651641
0.642125
0.634005
0.627008
0.620923
0.61559
0.61088
0.606694
0.60295
0.599584
0.596543
0.593782
0.591266
0.588964
0.586851
0.584905
0.583108
0.581442
0.579893
0.578445
0.577082
0.57579
0.574553
0.573352
0.572169
0.570984
0.569776
0.568522
0.567199
0.565783
0.564249
0.562574
0.560734
0.558704
0.556462
0.553987
0.551258
0.548257
0.544967
0.541372
0.537459
0.533216
0.528632
0.5237
0.518414
0.512769
0.506761
0.50039
0.493653
0.486552
0.479087
0.471257
0.463062
0.454499
0.445561
0.436236
0.426504
0.416336
0.405692
0.394519
0.382755
0.370325
0.357155
0.343168
0.328304
0.312523
0.295817
0.278222
0.259821
0.240751
0.221196
0.201384
0.181574
0.162044
0.143072
0.124922
0.107827
0.0919793
0.077521
0.0645397
0.0530694
0.0430943
0.0345555
0.0273599
0.0213897
0.0165102
0.0125882
0.00945636
0.00710457
0.00489129
0.00489129
-0.0440411
0.0440411
0.104658
0.147826
0.179978
0.204969
0.22512
0.241852
0.256065
0.268346
0.279103
0.288632
0.297153
0.30484
0.31183
0.318232
0.324136
0.329615
0.334729
0.339527
0.344051
0.348335
0.352408
0.356294
0.360014
0.363586
0.367024
0.370342
0.37355
0.376657
0.37967
0.382594
0.385435
0.388192
0.390868
0.393458
0.395961
0.398369
0.400676
0.402871
0.404942
0.406877
0.408659
0.410274
0.411703
0.412927
0.413928
0.414685
0.415179
0.41539
0.415298
0.414884
0.414131
0.413021
0.411538
0.409668
0.407398
0.404715
0.40161
0.398073
0.394094
0.389665
0.384776
0.379416
0.373571
0.367221
0.36034
0.352895
0.344843
0.336133
0.326707
0.316502
0.305457
0.293521
0.280656
0.266856
0.252143
0.236586
0.220295
0.203424
0.186171
0.168762
0.151446
0.134477
0.118103
0.102551
0.088011
0.0746353
0.0625266
0.0517398
0.042283
0.034123
0.0271918
0.0213956
0.0166229
0.0127512
0.00966195
0.00721377
0.00538608
0.00368404
0.00368404
-0.00135393
0.00135393
0.00757106
0.0154113
0.0241244
0.0333479
0.0428736
0.0525556
0.0622788
0.0719501
0.0814969
0.0908662
0.100022
0.108944
0.11762
0.126049
0.134233
0.142179
0.149897
0.157395
0.164687
0.171781
0.178688
0.185419
0.191982
0.198387
0.204641
0.210751
0.216722
0.222561
0.22827
0.233851
0.239304
0.244629
0.249823
0.25488
0.259793
0.264553
0.26915
0.27357
0.277799
0.281822
0.28562
0.289175
0.292469
0.29548
0.29819
0.300577
0.302622
0.304306
0.305609
0.306515
0.307008
0.307072
0.306695
0.305866
0.304574
0.302812
0.300573
0.29785
0.294637
0.29093
0.28672
0.282001
0.276759
0.270983
0.264652
0.257746
0.250241
0.242113
0.233339
0.223903
0.213801
0.203046
0.19167
0.17973
0.167313
0.154531
0.141521
0.12844
0.115459
0.102753
0.0904912
0.0788317
0.0679094
0.0578317
0.0486747
0.0404812
0.0332618
0.0269976
0.0216447
0.0171393
0.013404
0.0103531
0.00789769
0.00594989
0.00442872
0.00324948
0.00238396
0.00160156
0.00160156
-1.12304e-05
1.12304e-05
0.000371136
0.00113545
0.00236809
0.00411786
0.00641416
0.00926465
0.0126562
0.0165593
0.020933
0.0257304
0.0309028
0.036402
0.0421822
0.0482009
0.0544193
0.0608023
0.0673182
0.0739389
0.0806389
0.0873961
0.0941903
0.101004
0.107821
0.114628
0.121409
0.128154
0.134847
0.141474
0.148021
0.154471
0.160804
0.167002
0.173042
0.178901
0.184554
0.189977
0.195143
0.200026
0.2046
0.208839
0.212719
0.216215
0.219306
0.221971
0.224191
0.22595
0.227234
0.228031
0.228332
0.228131
0.227425
0.226211
0.224491
0.222269
0.219552
0.216345
0.212659
0.208504
0.203892
0.198835
0.193345
0.187436
0.18112
0.174413
0.16733
0.159889
0.152114
0.144031
0.135675
0.127089
0.118325
0.109445
0.100518
0.0916241
0.082848
0.074277
0.0659981
0.0580938
0.0506383
0.0436943
0.0373101
0.0315181
0.026334
0.0217573
0.0177723
0.0143505
0.0114532
0.00903388
0.00704182
0.0054242
0.0041287
0.00310537
0.00230802
0.00169504
0.00123051
0.000881212
0.000630854
0.000413746
0.000413746
1.70138e-06
-1.70138e-06
1.49765e-05
9.33844e-05
0.000299335
0.000718214
0.00144362
0.00256259
0.00414308
0.0062276
0.00883329
0.0119559
0.0155752
0.0196605
0.0241747
0.0290772
0.0343266
0.0398817
0.0457028
0.0517522
0.0579944
0.064397
0.0709295
0.0775639
0.0842738
0.0910331
0.0978158
0.104595
0.111341
0.118024
0.124611
0.131067
0.137356
0.143439
0.14928
0.15484
0.160082
0.164969
0.169469
0.173549
0.177179
0.180334
0.18299
0.185129
0.186734
0.187794
0.1883
0.188247
0.187635
0.186466
0.184747
0.182488
0.179702
0.176405
0.172616
0.168358
0.163655
0.158535
0.153028
0.147166
0.140984
0.134519
0.12781
0.120898
0.113829
0.106647
0.0994001
0.0921387
0.0849138
0.0777773
0.0707814
0.0639774
0.0574146
0.0511393
0.045193
0.0396117
0.0344247
0.0296532
0.0253104
0.0214009
0.0179207
0.0148583
0.0121948
0.00990584
0.00796241
0.00633241
0.00498207
0.0038772
0.00298441
0.00227194
0.00171045
0.00127345
0.00093756
0.000682586
0.000491427
0.000349857
0.000246359
0.000171303
0.000119006
7.5997e-05
7.5997e-05
1.70138e-06
-1.70138e-06
1.49765e-05
9.33844e-05
0.000299335
0.000718214
0.00144362
0.00256259
0.00414308
0.0062276
0.00883329
0.0119559
0.0155752
0.0196605
0.0241747
0.0290772
0.0343266
0.0398817
0.0457028
0.0517522
0.0579944
0.064397
0.0709295
0.0775639
0.0842738
0.0910331
0.0978158
0.104595
0.111341
0.118024
0.124611
0.131067
0.137356
0.143439
0.14928
0.15484
0.160082
0.164969
0.169469
0.173549
0.177179
0.180334
0.18299
0.185129
0.186734
0.187794
0.1883
0.188247
0.187635
0.186466
0.184747
0.182488
0.179702
0.176405
0.172616
0.168358
0.163655
0.158535
0.153028
0.147166
0.140984
0.134519
0.12781
0.120898
0.113829
0.106647
0.0994001
0.0921387
0.0849138
0.0777773
0.0707814
0.0639774
0.0574146
0.0511393
0.045193
0.0396117
0.0344247
0.0296532
0.0253104
0.0214009
0.0179207
0.0148583
0.0121948
0.00990584
0.00796241
0.00633241
0.00498207
0.0038772
0.00298441
0.00227194
0.00171045
0.00127345
0.00093756
0.000682586
0.000491427
0.000349857
0.000246359
0.000171303
0.000119006
7.5997e-05
7.5997e-05
