# vtk DataFile Version 2.0
FlowField
ASCII
DATASET STRUCTURED_GRID
DIMENSIONS 102 12 1 
POINTS 1224 double
0 0 0
0.3 0 0
0.6 0 0
0.9 0 0
1.2 0 0
1.5 0 0
1.8 0 0
2.1 0 0
2.4 0 0
2.7 0 0
3 0 0
3.3 0 0
3.6 0 0
3.9 0 0
4.2 0 0
4.5 0 0
4.8 0 0
5.1 0 0
5.4 0 0
5.7 0 0
6 0 0
6.3 0 0
6.6 0 0
6.9 0 0
7.2 0 0
7.5 0 0
7.8 0 0
8.1 0 0
8.4 0 0
8.7 0 0
9 0 0
9.3 0 0
9.6 0 0
9.9 0 0
10.2 0 0
10.5 0 0
10.8 0 0
11.1 0 0
11.4 0 0
11.7 0 0
12 0 0
12.3 0 0
12.6 0 0
12.9 0 0
13.2 0 0
13.5 0 0
13.8 0 0
14.1 0 0
14.4 0 0
14.7 0 0
15 0 0
15.3 0 0
15.6 0 0
15.9 0 0
16.2 0 0
16.5 0 0
16.8 0 0
17.1 0 0
17.4 0 0
17.7 0 0
18 0 0
18.3 0 0
18.6 0 0
18.9 0 0
19.2 0 0
19.5 0 0
19.8 0 0
20.1 0 0
20.4 0 0
20.7 0 0
21 0 0
21.3 0 0
21.6 0 0
21.9 0 0
22.2 0 0
22.5 0 0
22.8 0 0
23.1 0 0
23.4 0 0
23.7 0 0
24 0 0
24.3 0 0
24.6 0 0
24.9 0 0
25.2 0 0
25.5 0 0
25.8 0 0
26.1 0 0
26.4 0 0
26.7 0 0
27 0 0
27.3 0 0
27.6 0 0
27.9 0 0
28.2 0 0
28.5 0 0
28.8 0 0
29.1 0 0
29.4 0 0
29.7 0 0
30 0 0
30.3 0 0
0 0.1 0
0.3 0.1 0
0.6 0.1 0
0.9 0.1 0
1.2 0.1 0
1.5 0.1 0
1.8 0.1 0
2.1 0.1 0
2.4 0.1 0
2.7 0.1 0
3 0.1 0
3.3 0.1 0
3.6 0.1 0
3.9 0.1 0
4.2 0.1 0
4.5 0.1 0
4.8 0.1 0
5.1 0.1 0
5.4 0.1 0
5.7 0.1 0
6 0.1 0
6.3 0.1 0
6.6 0.1 0
6.9 0.1 0
7.2 0.1 0
7.5 0.1 0
7.8 0.1 0
8.1 0.1 0
8.4 0.1 0
8.7 0.1 0
9 0.1 0
9.3 0.1 0
9.6 0.1 0
9.9 0.1 0
10.2 0.1 0
10.5 0.1 0
10.8 0.1 0
11.1 0.1 0
11.4 0.1 0
11.7 0.1 0
12 0.1 0
12.3 0.1 0
12.6 0.1 0
12.9 0.1 0
13.2 0.1 0
13.5 0.1 0
13.8 0.1 0
14.1 0.1 0
14.4 0.1 0
14.7 0.1 0
15 0.1 0
15.3 0.1 0
15.6 0.1 0
15.9 0.1 0
16.2 0.1 0
16.5 0.1 0
16.8 0.1 0
17.1 0.1 0
17.4 0.1 0
17.7 0.1 0
18 0.1 0
18.3 0.1 0
18.6 0.1 0
18.9 0.1 0
19.2 0.1 0
19.5 0.1 0
19.8 0.1 0
20.1 0.1 0
20.4 0.1 0
20.7 0.1 0
21 0.1 0
21.3 0.1 0
21.6 0.1 0
21.9 0.1 0
22.2 0.1 0
22.5 0.1 0
22.8 0.1 0
23.1 0.1 0
23.4 0.1 0
23.7 0.1 0
24 0.1 0
24.3 0.1 0
24.6 0.1 0
24.9 0.1 0
25.2 0.1 0
25.5 0.1 0
25.8 0.1 0
26.1 0.1 0
26.4 0.1 0
26.7 0.1 0
27 0.1 0
27.3 0.1 0
27.6 0.1 0
27.9 0.1 0
28.2 0.1 0
28.5 0.1 0
28.8 0.1 0
29.1 0.1 0
29.4 0.1 0
29.7 0.1 0
30 0.1 0
30.3 0.1 0
0 0.2 0
0.3 0.2 0
0.6 0.2 0
0.9 0.2 0
1.2 0.2 0
1.5 0.2 0
1.8 0.2 0
2.1 0.2 0
2.4 0.2 0
2.7 0.2 0
3 0.2 0
3.3 0.2 0
3.6 0.2 0
3.9 0.2 0
4.2 0.2 0
4.5 0.2 0
4.8 0.2 0
5.1 0.2 0
5.4 0.2 0
5.7 0.2 0
6 0.2 0
6.3 0.2 0
6.6 0.2 0
6.9 0.2 0
7.2 0.2 0
7.5 0.2 0
7.8 0.2 0
8.1 0.2 0
8.4 0.2 0
8.7 0.2 0
9 0.2 0
9.3 0.2 0
9.6 0.2 0
9.9 0.2 0
10.2 0.2 0
10.5 0.2 0
10.8 0.2 0
11.1 0.2 0
11.4 0.2 0
11.7 0.2 0
12 0.2 0
12.3 0.2 0
12.6 0.2 0
12.9 0.2 0
13.2 0.2 0
13.5 0.2 0
13.8 0.2 0
14.1 0.2 0
14.4 0.2 0
14.7 0.2 0
15 0.2 0
15.3 0.2 0
15.6 0.2 0
15.9 0.2 0
16.2 0.2 0
16.5 0.2 0
16.8 0.2 0
17.1 0.2 0
17.4 0.2 0
17.7 0.2 0
18 0.2 0
18.3 0.2 0
18.6 0.2 0
18.9 0.2 0
19.2 0.2 0
19.5 0.2 0
19.8 0.2 0
20.1 0.2 0
20.4 0.2 0
20.7 0.2 0
21 0.2 0
21.3 0.2 0
21.6 0.2 0
21.9 0.2 0
22.2 0.2 0
22.5 0.2 0
22.8 0.2 0
23.1 0.2 0
23.4 0.2 0
23.7 0.2 0
24 0.2 0
24.3 0.2 0
24.6 0.2 0
24.9 0.2 0
25.2 0.2 0
25.5 0.2 0
25.8 0.2 0
26.1 0.2 0
26.4 0.2 0
26.7 0.2 0
27 0.2 0
27.3 0.2 0
27.6 0.2 0
27.9 0.2 0
28.2 0.2 0
28.5 0.2 0
28.8 0.2 0
29.1 0.2 0
29.4 0.2 0
29.7 0.2 0
30 0.2 0
30.3 0.2 0
0 0.3 0
0.3 0.3 0
0.6 0.3 0
0.9 0.3 0
1.2 0.3 0
1.5 0.3 0
1.8 0.3 0
2.1 0.3 0
2.4 0.3 0
2.7 0.3 0
3 0.3 0
3.3 0.3 0
3.6 0.3 0
3.9 0.3 0
4.2 0.3 0
4.5 0.3 0
4.8 0.3 0
5.1 0.3 0
5.4 0.3 0
5.7 0.3 0
6 0.3 0
6.3 0.3 0
6.6 0.3 0
6.9 0.3 0
7.2 0.3 0
7.5 0.3 0
7.8 0.3 0
8.1 0.3 0
8.4 0.3 0
8.7 0.3 0
9 0.3 0
9.3 0.3 0
9.6 0.3 0
9.9 0.3 0
10.2 0.3 0
10.5 0.3 0
10.8 0.3 0
11.1 0.3 0
11.4 0.3 0
11.7 0.3 0
12 0.3 0
12.3 0.3 0
12.6 0.3 0
12.9 0.3 0
13.2 0.3 0
13.5 0.3 0
13.8 0.3 0
14.1 0.3 0
14.4 0.3 0
14.7 0.3 0
15 0.3 0
15.3 0.3 0
15.6 0.3 0
15.9 0.3 0
16.2 0.3 0
16.5 0.3 0
16.8 0.3 0
17.1 0.3 0
17.4 0.3 0
17.7 0.3 0
18 0.3 0
18.3 0.3 0
18.6 0.3 0
18.9 0.3 0
19.2 0.3 0
19.5 0.3 0
19.8 0.3 0
20.1 0.3 0
20.4 0.3 0
20.7 0.3 0
21 0.3 0
21.3 0.3 0
21.6 0.3 0
21.9 0.3 0
22.2 0.3 0
22.5 0.3 0
22.8 0.3 0
23.1 0.3 0
23.4 0.3 0
23.7 0.3 0
24 0.3 0
24.3 0.3 0
24.6 0.3 0
24.9 0.3 0
25.2 0.3 0
25.5 0.3 0
25.8 0.3 0
26.1 0.3 0
26.4 0.3 0
26.7 0.3 0
27 0.3 0
27.3 0.3 0
27.6 0.3 0
27.9 0.3 0
28.2 0.3 0
28.5 0.3 0
28.8 0.3 0
29.1 0.3 0
29.4 0.3 0
29.7 0.3 0
30 0.3 0
30.3 0.3 0
0 0.4 0
0.3 0.4 0
0.6 0.4 0
0.9 0.4 0
1.2 0.4 0
1.5 0.4 0
1.8 0.4 0
2.1 0.4 0
2.4 0.4 0
2.7 0.4 0
3 0.4 0
3.3 0.4 0
3.6 0.4 0
3.9 0.4 0
4.2 0.4 0
4.5 0.4 0
4.8 0.4 0
5.1 0.4 0
5.4 0.4 0
5.7 0.4 0
6 0.4 0
6.3 0.4 0
6.6 0.4 0
6.9 0.4 0
7.2 0.4 0
7.5 0.4 0
7.8 0.4 0
8.1 0.4 0
8.4 0.4 0
8.7 0.4 0
9 0.4 0
9.3 0.4 0
9.6 0.4 0
9.9 0.4 0
10.2 0.4 0
10.5 0.4 0
10.8 0.4 0
11.1 0.4 0
11.4 0.4 0
11.7 0.4 0
12 0.4 0
12.3 0.4 0
12.6 0.4 0
12.9 0.4 0
13.2 0.4 0
13.5 0.4 0
13.8 0.4 0
14.1 0.4 0
14.4 0.4 0
14.7 0.4 0
15 0.4 0
15.3 0.4 0
15.6 0.4 0
15.9 0.4 0
16.2 0.4 0
16.5 0.4 0
16.8 0.4 0
17.1 0.4 0
17.4 0.4 0
17.7 0.4 0
18 0.4 0
18.3 0.4 0
18.6 0.4 0
18.9 0.4 0
19.2 0.4 0
19.5 0.4 0
19.8 0.4 0
20.1 0.4 0
20.4 0.4 0
20.7 0.4 0
21 0.4 0
21.3 0.4 0
21.6 0.4 0
21.9 0.4 0
22.2 0.4 0
22.5 0.4 0
22.8 0.4 0
23.1 0.4 0
23.4 0.4 0
23.7 0.4 0
24 0.4 0
24.3 0.4 0
24.6 0.4 0
24.9 0.4 0
25.2 0.4 0
25.5 0.4 0
25.8 0.4 0
26.1 0.4 0
26.4 0.4 0
26.7 0.4 0
27 0.4 0
27.3 0.4 0
27.6 0.4 0
27.9 0.4 0
28.2 0.4 0
28.5 0.4 0
28.8 0.4 0
29.1 0.4 0
29.4 0.4 0
29.7 0.4 0
30 0.4 0
30.3 0.4 0
0 0.5 0
0.3 0.5 0
0.6 0.5 0
0.9 0.5 0
1.2 0.5 0
1.5 0.5 0
1.8 0.5 0
2.1 0.5 0
2.4 0.5 0
2.7 0.5 0
3 0.5 0
3.3 0.5 0
3.6 0.5 0
3.9 0.5 0
4.2 0.5 0
4.5 0.5 0
4.8 0.5 0
5.1 0.5 0
5.4 0.5 0
5.7 0.5 0
6 0.5 0
6.3 0.5 0
6.6 0.5 0
6.9 0.5 0
7.2 0.5 0
7.5 0.5 0
7.8 0.5 0
8.1 0.5 0
8.4 0.5 0
8.7 0.5 0
9 0.5 0
9.3 0.5 0
9.6 0.5 0
9.9 0.5 0
10.2 0.5 0
10.5 0.5 0
10.8 0.5 0
11.1 0.5 0
11.4 0.5 0
11.7 0.5 0
12 0.5 0
12.3 0.5 0
12.6 0.5 0
12.9 0.5 0
13.2 0.5 0
13.5 0.5 0
13.8 0.5 0
14.1 0.5 0
14.4 0.5 0
14.7 0.5 0
15 0.5 0
15.3 0.5 0
15.6 0.5 0
15.9 0.5 0
16.2 0.5 0
16.5 0.5 0
16.8 0.5 0
17.1 0.5 0
17.4 0.5 0
17.7 0.5 0
18 0.5 0
18.3 0.5 0
18.6 0.5 0
18.9 0.5 0
19.2 0.5 0
19.5 0.5 0
19.8 0.5 0
20.1 0.5 0
20.4 0.5 0
20.7 0.5 0
21 0.5 0
21.3 0.5 0
21.6 0.5 0
21.9 0.5 0
22.2 0.5 0
22.5 0.5 0
22.8 0.5 0
23.1 0.5 0
23.4 0.5 0
23.7 0.5 0
24 0.5 0
24.3 0.5 0
24.6 0.5 0
24.9 0.5 0
25.2 0.5 0
25.5 0.5 0
25.8 0.5 0
26.1 0.5 0
26.4 0.5 0
26.7 0.5 0
27 0.5 0
27.3 0.5 0
27.6 0.5 0
27.9 0.5 0
28.2 0.5 0
28.5 0.5 0
28.8 0.5 0
29.1 0.5 0
29.4 0.5 0
29.7 0.5 0
30 0.5 0
30.3 0.5 0
0 0.6 0
0.3 0.6 0
0.6 0.6 0
0.9 0.6 0
1.2 0.6 0
1.5 0.6 0
1.8 0.6 0
2.1 0.6 0
2.4 0.6 0
2.7 0.6 0
3 0.6 0
3.3 0.6 0
3.6 0.6 0
3.9 0.6 0
4.2 0.6 0
4.5 0.6 0
4.8 0.6 0
5.1 0.6 0
5.4 0.6 0
5.7 0.6 0
6 0.6 0
6.3 0.6 0
6.6 0.6 0
6.9 0.6 0
7.2 0.6 0
7.5 0.6 0
7.8 0.6 0
8.1 0.6 0
8.4 0.6 0
8.7 0.6 0
9 0.6 0
9.3 0.6 0
9.6 0.6 0
9.9 0.6 0
10.2 0.6 0
10.5 0.6 0
10.8 0.6 0
11.1 0.6 0
11.4 0.6 0
11.7 0.6 0
12 0.6 0
12.3 0.6 0
12.6 0.6 0
12.9 0.6 0
13.2 0.6 0
13.5 0.6 0
13.8 0.6 0
14.1 0.6 0
14.4 0.6 0
14.7 0.6 0
15 0.6 0
15.3 0.6 0
15.6 0.6 0
15.9 0.6 0
16.2 0.6 0
16.5 0.6 0
16.8 0.6 0
17.1 0.6 0
17.4 0.6 0
17.7 0.6 0
18 0.6 0
18.3 0.6 0
18.6 0.6 0
18.9 0.6 0
19.2 0.6 0
19.5 0.6 0
19.8 0.6 0
20.1 0.6 0
20.4 0.6 0
20.7 0.6 0
21 0.6 0
21.3 0.6 0
21.6 0.6 0
21.9 0.6 0
22.2 0.6 0
22.5 0.6 0
22.8 0.6 0
23.1 0.6 0
23.4 0.6 0
23.7 0.6 0
24 0.6 0
24.3 0.6 0
24.6 0.6 0
24.9 0.6 0
25.2 0.6 0
25.5 0.6 0
25.8 0.6 0
26.1 0.6 0
26.4 0.6 0
26.7 0.6 0
27 0.6 0
27.3 0.6 0
27.6 0.6 0
27.9 0.6 0
28.2 0.6 0
28.5 0.6 0
28.8 0.6 0
29.1 0.6 0
29.4 0.6 0
29.7 0.6 0
30 0.6 0
30.3 0.6 0
0 0.7 0
0.3 0.7 0
0.6 0.7 0
0.9 0.7 0
1.2 0.7 0
1.5 0.7 0
1.8 0.7 0
2.1 0.7 0
2.4 0.7 0
2.7 0.7 0
3 0.7 0
3.3 0.7 0
3.6 0.7 0
3.9 0.7 0
4.2 0.7 0
4.5 0.7 0
4.8 0.7 0
5.1 0.7 0
5.4 0.7 0
5.7 0.7 0
6 0.7 0
6.3 0.7 0
6.6 0.7 0
6.9 0.7 0
7.2 0.7 0
7.5 0.7 0
7.8 0.7 0
8.1 0.7 0
8.4 0.7 0
8.7 0.7 0
9 0.7 0
9.3 0.7 0
9.6 0.7 0
9.9 0.7 0
10.2 0.7 0
10.5 0.7 0
10.8 0.7 0
11.1 0.7 0
11.4 0.7 0
11.7 0.7 0
12 0.7 0
12.3 0.7 0
12.6 0.7 0
12.9 0.7 0
13.2 0.7 0
13.5 0.7 0
13.8 0.7 0
14.1 0.7 0
14.4 0.7 0
14.7 0.7 0
15 0.7 0
15.3 0.7 0
15.6 0.7 0
15.9 0.7 0
16.2 0.7 0
16.5 0.7 0
16.8 0.7 0
17.1 0.7 0
17.4 0.7 0
17.7 0.7 0
18 0.7 0
18.3 0.7 0
18.6 0.7 0
18.9 0.7 0
19.2 0.7 0
19.5 0.7 0
19.8 0.7 0
20.1 0.7 0
20.4 0.7 0
20.7 0.7 0
21 0.7 0
21.3 0.7 0
21.6 0.7 0
21.9 0.7 0
22.2 0.7 0
22.5 0.7 0
22.8 0.7 0
23.1 0.7 0
23.4 0.7 0
23.7 0.7 0
24 0.7 0
24.3 0.7 0
24.6 0.7 0
24.9 0.7 0
25.2 0.7 0
25.5 0.7 0
25.8 0.7 0
26.1 0.7 0
26.4 0.7 0
26.7 0.7 0
27 0.7 0
27.3 0.7 0
27.6 0.7 0
27.9 0.7 0
28.2 0.7 0
28.5 0.7 0
28.8 0.7 0
29.1 0.7 0
29.4 0.7 0
29.7 0.7 0
30 0.7 0
30.3 0.7 0
0 0.8 0
0.3 0.8 0
0.6 0.8 0
0.9 0.8 0
1.2 0.8 0
1.5 0.8 0
1.8 0.8 0
2.1 0.8 0
2.4 0.8 0
2.7 0.8 0
3 0.8 0
3.3 0.8 0
3.6 0.8 0
3.9 0.8 0
4.2 0.8 0
4.5 0.8 0
4.8 0.8 0
5.1 0.8 0
5.4 0.8 0
5.7 0.8 0
6 0.8 0
6.3 0.8 0
6.6 0.8 0
6.9 0.8 0
7.2 0.8 0
7.5 0.8 0
7.8 0.8 0
8.1 0.8 0
8.4 0.8 0
8.7 0.8 0
9 0.8 0
9.3 0.8 0
9.6 0.8 0
9.9 0.8 0
10.2 0.8 0
10.5 0.8 0
10.8 0.8 0
11.1 0.8 0
11.4 0.8 0
11.7 0.8 0
12 0.8 0
12.3 0.8 0
12.6 0.8 0
12.9 0.8 0
13.2 0.8 0
13.5 0.8 0
13.8 0.8 0
14.1 0.8 0
14.4 0.8 0
14.7 0.8 0
15 0.8 0
15.3 0.8 0
15.6 0.8 0
15.9 0.8 0
16.2 0.8 0
16.5 0.8 0
16.8 0.8 0
17.1 0.8 0
17.4 0.8 0
17.7 0.8 0
18 0.8 0
18.3 0.8 0
18.6 0.8 0
18.9 0.8 0
19.2 0.8 0
19.5 0.8 0
19.8 0.8 0
20.1 0.8 0
20.4 0.8 0
20.7 0.8 0
21 0.8 0
21.3 0.8 0
21.6 0.8 0
21.9 0.8 0
22.2 0.8 0
22.5 0.8 0
22.8 0.8 0
23.1 0.8 0
23.4 0.8 0
23.7 0.8 0
24 0.8 0
24.3 0.8 0
24.6 0.8 0
24.9 0.8 0
25.2 0.8 0
25.5 0.8 0
25.8 0.8 0
26.1 0.8 0
26.4 0.8 0
26.7 0.8 0
27 0.8 0
27.3 0.8 0
27.6 0.8 0
27.9 0.8 0
28.2 0.8 0
28.5 0.8 0
28.8 0.8 0
29.1 0.8 0
29.4 0.8 0
29.7 0.8 0
30 0.8 0
30.3 0.8 0
0 0.9 0
0.3 0.9 0
0.6 0.9 0
0.9 0.9 0
1.2 0.9 0
1.5 0.9 0
1.8 0.9 0
2.1 0.9 0
2.4 0.9 0
2.7 0.9 0
3 0.9 0
3.3 0.9 0
3.6 0.9 0
3.9 0.9 0
4.2 0.9 0
4.5 0.9 0
4.8 0.9 0
5.1 0.9 0
5.4 0.9 0
5.7 0.9 0
6 0.9 0
6.3 0.9 0
6.6 0.9 0
6.9 0.9 0
7.2 0.9 0
7.5 0.9 0
7.8 0.9 0
8.1 0.9 0
8.4 0.9 0
8.7 0.9 0
9 0.9 0
9.3 0.9 0
9.6 0.9 0
9.9 0.9 0
10.2 0.9 0
10.5 0.9 0
10.8 0.9 0
11.1 0.9 0
11.4 0.9 0
11.7 0.9 0
12 0.9 0
12.3 0.9 0
12.6 0.9 0
12.9 0.9 0
13.2 0.9 0
13.5 0.9 0
13.8 0.9 0
14.1 0.9 0
14.4 0.9 0
14.7 0.9 0
15 0.9 0
15.3 0.9 0
15.6 0.9 0
15.9 0.9 0
16.2 0.9 0
16.5 0.9 0
16.8 0.9 0
17.1 0.9 0
17.4 0.9 0
17.7 0.9 0
18 0.9 0
18.3 0.9 0
18.6 0.9 0
18.9 0.9 0
19.2 0.9 0
19.5 0.9 0
19.8 0.9 0
20.1 0.9 0
20.4 0.9 0
20.7 0.9 0
21 0.9 0
21.3 0.9 0
21.6 0.9 0
21.9 0.9 0
22.2 0.9 0
22.5 0.9 0
22.8 0.9 0
23.1 0.9 0
23.4 0.9 0
23.7 0.9 0
24 0.9 0
24.3 0.9 0
24.6 0.9 0
24.9 0.9 0
25.2 0.9 0
25.5 0.9 0
25.8 0.9 0
26.1 0.9 0
26.4 0.9 0
26.7 0.9 0
27 0.9 0
27.3 0.9 0
27.6 0.9 0
27.9 0.9 0
28.2 0.9 0
28.5 0.9 0
28.8 0.9 0
29.1 0.9 0
29.4 0.9 0
29.7 0.9 0
30 0.9 0
30.3 0.9 0
0 1 0
0.3 1 0
0.6 1 0
0.9 1 0
1.2 1 0
1.5 1 0
1.8 1 0
2.1 1 0
2.4 1 0
2.7 1 0
3 1 0
3.3 1 0
3.6 1 0
3.9 1 0
4.2 1 0
4.5 1 0
4.8 1 0
5.1 1 0
5.4 1 0
5.7 1 0
6 1 0
6.3 1 0
6.6 1 0
6.9 1 0
7.2 1 0
7.5 1 0
7.8 1 0
8.1 1 0
8.4 1 0
8.7 1 0
9 1 0
9.3 1 0
9.6 1 0
9.9 1 0
10.2 1 0
10.5 1 0
10.8 1 0
11.1 1 0
11.4 1 0
11.7 1 0
12 1 0
12.3 1 0
12.6 1 0
12.9 1 0
13.2 1 0
13.5 1 0
13.8 1 0
14.1 1 0
14.4 1 0
14.7 1 0
15 1 0
15.3 1 0
15.6 1 0
15.9 1 0
16.2 1 0
16.5 1 0
16.8 1 0
17.1 1 0
17.4 1 0
17.7 1 0
18 1 0
18.3 1 0
18.6 1 0
18.9 1 0
19.2 1 0
19.5 1 0
19.8 1 0
20.1 1 0
20.4 1 0
20.7 1 0
21 1 0
21.3 1 0
21.6 1 0
21.9 1 0
22.2 1 0
22.5 1 0
22.8 1 0
23.1 1 0
23.4 1 0
23.7 1 0
24 1 0
24.3 1 0
24.6 1 0
24.9 1 0
25.2 1 0
25.5 1 0
25.8 1 0
26.1 1 0
26.4 1 0
26.7 1 0
27 1 0
27.3 1 0
27.6 1 0
27.9 1 0
28.2 1 0
28.5 1 0
28.8 1 0
29.1 1 0
29.4 1 0
29.7 1 0
30 1 0
30.3 1 0
0 1.1 0
0.3 1.1 0
0.6 1.1 0
0.9 1.1 0
1.2 1.1 0
1.5 1.1 0
1.8 1.1 0
2.1 1.1 0
2.4 1.1 0
2.7 1.1 0
3 1.1 0
3.3 1.1 0
3.6 1.1 0
3.9 1.1 0
4.2 1.1 0
4.5 1.1 0
4.8 1.1 0
5.1 1.1 0
5.4 1.1 0
5.7 1.1 0
6 1.1 0
6.3 1.1 0
6.6 1.1 0
6.9 1.1 0
7.2 1.1 0
7.5 1.1 0
7.8 1.1 0
8.1 1.1 0
8.4 1.1 0
8.7 1.1 0
9 1.1 0
9.3 1.1 0
9.6 1.1 0
9.9 1.1 0
10.2 1.1 0
10.5 1.1 0
10.8 1.1 0
11.1 1.1 0
11.4 1.1 0
11.7 1.1 0
12 1.1 0
12.3 1.1 0
12.6 1.1 0
12.9 1.1 0
13.2 1.1 0
13.5 1.1 0
13.8 1.1 0
14.1 1.1 0
14.4 1.1 0
14.7 1.1 0
15 1.1 0
15.3 1.1 0
15.6 1.1 0
15.9 1.1 0
16.2 1.1 0
16.5 1.1 0
16.8 1.1 0
17.1 1.1 0
17.4 1.1 0
17.7 1.1 0
18 1.1 0
18.3 1.1 0
18.6 1.1 0
18.9 1.1 0
19.2 1.1 0
19.5 1.1 0
19.8 1.1 0
20.1 1.1 0
20.4 1.1 0
20.7 1.1 0
21 1.1 0
21.3 1.1 0
21.6 1.1 0
21.9 1.1 0
22.2 1.1 0
22.5 1.1 0
22.8 1.1 0
23.1 1.1 0
23.4 1.1 0
23.7 1.1 0
24 1.1 0
24.3 1.1 0
24.6 1.1 0
24.9 1.1 0
25.2 1.1 0
25.5 1.1 0
25.8 1.1 0
26.1 1.1 0
26.4 1.1 0
26.7 1.1 0
27 1.1 0
27.3 1.1 0
27.6 1.1 0
27.9 1.1 0
28.2 1.1 0
28.5 1.1 0
28.8 1.1 0
29.1 1.1 0
29.4 1.1 0
29.7 1.1 0
30 1.1 0
30.3 1.1 0

POINT_DATA 1224

VECTORS velocity double
LOOKUP_TABLE default
-1 0 0
-0.889058 0 0
-0.783296 0 0
-0.714988 0 0
-0.681465 0 0
-0.668522 0 0
-0.664498 0 0
-0.663487 0 0
-0.66329 0 0
-0.663264 0 0
-0.663265 0 0
-0.663267 0 0
-0.663267 0 0
-0.663267 0 0
-0.663268 0 0
-0.663268 0 0
-0.663268 0 0
-0.663268 0 0
-0.663268 0 0
-0.663268 0 0
-0.663268 0 0
-0.663269 0 0
-0.663269 0 0
-0.663269 0 0
-0.663269 0 0
-0.663269 0 0
-0.663269 0 0
-0.663269 0 0
-0.663269 0 0
-0.663269 0 0
-0.663269 0 0
-0.663269 0 0
-0.663269 0 0
-0.663269 0 0
-0.663269 0 0
-0.663269 0 0
-0.663269 0 0
-0.663269 0 0
-0.663269 0 0
-0.663269 0 0
-0.663269 0 0
-0.663269 0 0
-0.663269 0 0
-0.663269 0 0
-0.663269 0 0
-0.663269 0 0
-0.663269 0 0
-0.663269 0 0
-0.663269 0 0
-0.663269 0 0
-0.663269 0 0
-0.663269 0 0
-0.663269 0 0
-0.663269 0 0
-0.663269 0 0
-0.663268 0 0
-0.663268 0 0
-0.663268 0 0
-0.663268 0 0
-0.663268 0 0
-0.663268 0 0
-0.663268 0 0
-0.663267 0 0
-0.663267 0 0
-0.663267 0 0
-0.663267 0 0
-0.663267 0 0
-0.663267 0 0
-0.663266 0 0
-0.663266 0 0
-0.663266 0 0
-0.663266 0 0
-0.663266 0 0
-0.663265 0 0
-0.663265 0 0
-0.663265 0 0
-0.663265 0 0
-0.663264 0 0
-0.663264 0 0
-0.663264 0 0
-0.663264 0 0
-0.663263 0 0
-0.663263 0 0
-0.663263 0 0
-0.663263 0 0
-0.663262 0 0
-0.663262 0 0
-0.663262 0 0
-0.663262 0 0
-0.663261 0 0
-0.663261 0 0
-0.663261 0 0
-0.66326 0 0
-0.66326 0 0
-0.66326 0 0
-0.663262 0 0
-0.663268 0 0
-0.663328 0 0
-0.663365 0 0
-0.664883 0 0
-0.664883 0 0
-1 0 0
1 -0.0369808 0
0.889058 0.0369808 0
0.783296 0.035254 0
0.714988 0.0227691 0
0.681465 0.0111745 0
0.668522 0.00431423 0
0.664498 0.00134146 0
0.663487 0.000336984 0
0.66329 6.59176e-05 0
0.663264 8.44063e-06 0
0.663265 -1.92239e-07 0
0.663267 -5.33222e-07 0
0.663267 -2.13768e-07 0
0.663267 -8.02575e-08 0
0.663268 -4.57107e-08 0
0.663268 -3.92971e-08 0
0.663268 -3.90556e-08 0
0.663268 -3.99784e-08 0
0.663268 -4.11368e-08 0
0.663268 -4.23902e-08 0
0.663268 -4.37223e-08 0
0.663269 -4.51316e-08 0
0.663269 -4.66168e-08 0
0.663269 -4.81769e-08 0
0.663269 -4.98107e-08 0
0.663269 -5.15171e-08 0
0.663269 -5.32945e-08 0
0.663269 -5.51407e-08 0
0.663269 -5.70538e-08 0
0.663269 -5.90319e-08 0
0.663269 -6.10725e-08 0
0.663269 -6.31733e-08 0
0.663269 -6.53315e-08 0
0.663269 -6.75445e-08 0
0.663269 -6.98098e-08 0
0.663269 -7.21254e-08 0
0.663269 -7.449e-08 0
0.663269 -7.69028e-08 0
0.663269 -7.93625e-08 0
0.663269 -8.18655e-08 0
0.663269 -8.44071e-08 0
0.663269 -8.69841e-08 0
0.663269 -8.95949e-08 0
0.663269 -9.22381e-08 0
0.663269 -9.49107e-08 0
0.663269 -9.76119e-08 0
0.663269 -1.0034e-07 0
0.663269 -1.03093e-07 0
0.663269 -1.0586e-07 0
0.663269 -1.08654e-07 0
0.663269 -1.11481e-07 0
0.663269 -1.14338e-07 0
0.663269 -1.1722e-07 0
0.663269 -1.20106e-07 0
0.663269 -1.22977e-07 0
0.663268 -1.25833e-07 0
0.663268 -1.2868e-07 0
0.663268 -1.31522e-07 0
0.663268 -1.34359e-07 0
0.663268 -1.37186e-07 0
0.663268 -1.39998e-07 0
0.663268 -1.42791e-07 0
0.663267 -1.45565e-07 0
0.663267 -1.48318e-07 0
0.663267 -1.51049e-07 0
0.663267 -1.53754e-07 0
0.663267 -1.56432e-07 0
0.663267 -1.59079e-07 0
0.663266 -1.61694e-07 0
0.663266 -1.64273e-07 0
0.663266 -1.66814e-07 0
0.663266 -1.69314e-07 0
0.663266 -1.71771e-07 0
0.663265 -1.74182e-07 0
0.663265 -1.76545e-07 0
0.663265 -1.78856e-07 0
0.663265 -1.81115e-07 0
0.663264 -1.83318e-07 0
0.663264 -1.85462e-07 0
0.663264 -1.87547e-07 0
0.663264 -1.89569e-07 0
0.663263 -1.91526e-07 0
0.663263 -1.93416e-07 0
0.663263 -1.95236e-07 0
0.663263 -1.96984e-07 0
0.663262 -1.9866e-07 0
0.663262 -2.00262e-07 0
0.663262 -2.01791e-07 0
0.663262 -2.03255e-07 0
0.663261 -2.04689e-07 0
0.663261 -2.06255e-07 0
0.663261 -2.08668e-07 0
0.66326 -2.15057e-07 0
0.66326 -2.40975e-07 0
0.66326 -3.38682e-07 0
0.663262 -9.51711e-07 0
0.663268 -2.02184e-06 0
0.663328 -2.06201e-05 0
0.663365 -1.24794e-05 0
0.664883 -0.000506338 0
0.664883 -0.000770813 0
1 -0.000770813 0
1 -0.027761 0
1.02766 0.027761 0
1.03536 0.0326859 0
1.03703 0.0222131 0
1.03768 0.0109585 0
1.03819 0.00414541 0
1.03855 0.00122064 0
1.03875 0.000269818 0
1.03884 3.5986e-05 0
1.03887 -2.71887e-06 0
1.03888 -3.72581e-06 0
1.03889 -1.52234e-06 0
1.03889 -4.72688e-07 0
1.03889 -1.43411e-07 0
1.03889 -6.04097e-08 0
1.03889 -4.29282e-08 0
1.03889 -4.02728e-08 0
1.03889 -4.06079e-08 0
1.03889 -4.15313e-08 0
1.03889 -4.26126e-08 0
1.03889 -4.37843e-08 0
1.03889 -4.50364e-08 0
1.03889 -4.6367e-08 0
1.03889 -4.77747e-08 0
1.03889 -4.92583e-08 0
1.03889 -5.08164e-08 0
1.03889 -5.24482e-08 0
1.03889 -5.41533e-08 0
1.03889 -5.5931e-08 0
1.03889 -5.77793e-08 0
1.03889 -5.96952e-08 0
1.03889 -6.16753e-08 0
1.03889 -6.3716e-08 0
1.03889 -6.58139e-08 0
1.03889 -6.79662e-08 0
1.03889 -7.01715e-08 0
1.03889 -7.24294e-08 0
1.03889 -7.47388e-08 0
1.03889 -7.7097e-08 0
1.03889 -7.95002e-08 0
1.03889 -8.19453e-08 0
1.03889 -8.4431e-08 0
1.03889 -8.69565e-08 0
1.03889 -8.95199e-08 0
1.03889 -9.21188e-08 0
1.03889 -9.47507e-08 0
1.03889 -9.74126e-08 0
1.03889 -1.00099e-07 0
1.03889 -1.0281e-07 0
1.03889 -1.05551e-07 0
1.03889 -1.08317e-07 0
1.03889 -1.11101e-07 0
1.03889 -1.13893e-07 0
1.03889 -1.16683e-07 0
1.03889 -1.19472e-07 0
1.03889 -1.22268e-07 0
1.03889 -1.25074e-07 0
1.03888 -1.27888e-07 0
1.03888 -1.30702e-07 0
1.03888 -1.33512e-07 0
1.03888 -1.36313e-07 0
1.03888 -1.39106e-07 0
1.03888 -1.41888e-07 0
1.03888 -1.44658e-07 0
1.03888 -1.47411e-07 0
1.03888 -1.50145e-07 0
1.03888 -1.52858e-07 0
1.03888 -1.55545e-07 0
1.03888 -1.58204e-07 0
1.03888 -1.60834e-07 0
1.03888 -1.63431e-07 0
1.03888 -1.65992e-07 0
1.03888 -1.68516e-07 0
1.03888 -1.70999e-07 0
1.03888 -1.73439e-07 0
1.03888 -1.75833e-07 0
1.03888 -1.78179e-07 0
1.03888 -1.80474e-07 0
1.03888 -1.82717e-07 0
1.03888 -1.84904e-07 0
1.03888 -1.87034e-07 0
1.03888 -1.89103e-07 0
1.03888 -1.91109e-07 0
1.03888 -1.93051e-07 0
1.03888 -1.94926e-07 0
1.03888 -1.96734e-07 0
1.03888 -1.98473e-07 0
1.03888 -2.00145e-07 0
1.03888 -2.01765e-07 0
1.03888 -2.03387e-07 0
1.03888 -2.05251e-07 0
1.03888 -2.08403e-07 0
1.03888 -2.17479e-07 0
1.03888 -2.53909e-07 0
1.03888 -4.06545e-07 0
1.03888 -1.17779e-06 0
1.03888 -3.66511e-06 0
1.03889 -2.35218e-05 0
1.03899 -4.61404e-05 0
1.03912 -0.000549784 0
1.03912 -0.000826825 0
1 -0.000826825 0
1 -0.0166599 0
1.0333 0.0166599 0
1.06475 0.0222025 0
1.08374 0.015885 0
1.09207 0.00818179 0
1.09474 0.00325504 0
1.09533 0.00102448 0
1.09538 0.000251334 0
1.09536 4.32272e-05 0
1.09535 2.13793e-06 0
1.09534 -1.99382e-06 0
1.09534 -1.05575e-06 0
1.09534 -3.62374e-07 0
1.09534 -1.11901e-07 0
1.09534 -4.28484e-08 0
1.09534 -2.7301e-08 0
1.09534 -2.48945e-08 0
1.09534 -2.53542e-08 0
1.09534 -2.64285e-08 0
1.09534 -2.76822e-08 0
1.09534 -2.90404e-08 0
1.09534 -3.0491e-08 0
1.09534 -3.20311e-08 0
1.09534 -3.36591e-08 0
1.09534 -3.53731e-08 0
1.09534 -3.71717e-08 0
1.09534 -3.90548e-08 0
1.09534 -4.10229e-08 0
1.09534 -4.30754e-08 0
1.09534 -4.52101e-08 0
1.09534 -4.74226e-08 0
1.09534 -4.97086e-08 0
1.09534 -5.20633e-08 0
1.09534 -5.4482e-08 0
1.09534 -5.69612e-08 0
1.09534 -5.94996e-08 0
1.09534 -6.20972e-08 0
1.09534 -6.47527e-08 0
1.09534 -6.74631e-08 0
1.09534 -7.02244e-08 0
1.09534 -7.30333e-08 0
1.09534 -7.58885e-08 0
1.09534 -7.8789e-08 0
1.09534 -8.17328e-08 0
1.09534 -8.4717e-08 0
1.09534 -8.77379e-08 0
1.09534 -9.07914e-08 0
1.09534 -9.38726e-08 0
1.09534 -9.69825e-08 0
1.09534 -1.00122e-07 0
1.09534 -1.03283e-07 0
1.09534 -1.0646e-07 0
1.09534 -1.09645e-07 0
1.09534 -1.12832e-07 0
1.09534 -1.16024e-07 0
1.09534 -1.19228e-07 0
1.09534 -1.22442e-07 0
1.09534 -1.25663e-07 0
1.09534 -1.28882e-07 0
1.09534 -1.32096e-07 0
1.09533 -1.35301e-07 0
1.09533 -1.38497e-07 0
1.09533 -1.41681e-07 0
1.09533 -1.44849e-07 0
1.09533 -1.47999e-07 0
1.09533 -1.51125e-07 0
1.09533 -1.54226e-07 0
1.09533 -1.57298e-07 0
1.09533 -1.60337e-07 0
1.09533 -1.63342e-07 0
1.09533 -1.66308e-07 0
1.09533 -1.69234e-07 0
1.09533 -1.72116e-07 0
1.09533 -1.74951e-07 0
1.09533 -1.77736e-07 0
1.09533 -1.80468e-07 0
1.09533 -1.83145e-07 0
1.09533 -1.85764e-07 0
1.09533 -1.88321e-07 0
1.09533 -1.90815e-07 0
1.09533 -1.93242e-07 0
1.09533 -1.956e-07 0
1.09533 -1.97885e-07 0
1.09533 -2.00097e-07 0
1.09533 -2.02232e-07 0
1.09533 -2.0429e-07 0
1.09533 -2.06268e-07 0
1.09533 -2.08171e-07 0
1.09533 -2.10011e-07 0
1.09533 -2.11845e-07 0
1.09533 -2.139e-07 0
1.09533 -2.1715e-07 0
1.09533 -2.25881e-07 0
1.09533 -2.59291e-07 0
1.09533 -4.02837e-07 0
1.09533 -1.0621e-06 0
1.09533 -3.70837e-06 0
1.09531 -1.84544e-05 0
1.09534 -5.52464e-05 0
1.09482 -0.00037811 0
1.09482 -0.000585977 0
1 -0.000585977 0
1 -0.00771915 0
1.02682 0.00771915 0
1.06037 0.0110186 0
1.08354 0.00816154 0
1.09506 0.00434371 0
1.09944 0.00179556 0
1.10073 0.000593545 0
1.10101 0.000156511 0
1.10105 3.10837e-05 0
1.10105 3.43657e-06 0
1.10104 -5.2607e-07 0
1.10104 -4.59063e-07 0
1.10104 -1.73339e-07 0
1.10104 -5.14559e-08 0
1.10104 -1.54589e-08 0
1.10104 -7.35845e-09 0
1.10104 -6.5678e-09 0
1.10104 -7.48459e-09 0
1.10104 -8.82014e-09 0
1.10104 -1.03153e-08 0
1.10104 -1.19237e-08 0
1.10104 -1.36371e-08 0
1.10104 -1.54526e-08 0
1.10104 -1.73682e-08 0
1.10104 -1.93815e-08 0
1.10104 -2.14911e-08 0
1.10104 -2.36973e-08 0
1.10104 -2.60017e-08 0
1.10104 -2.84039e-08 0
1.10104 -3.09007e-08 0
1.10104 -3.34869e-08 0
1.10104 -3.61566e-08 0
1.10104 -3.8904e-08 0
1.10104 -4.17231e-08 0
1.10104 -4.4609e-08 0
1.10104 -4.75611e-08 0
1.10104 -5.05794e-08 0
1.10104 -5.36631e-08 0
1.10104 -5.6809e-08 0
1.10104 -6.00127e-08 0
1.10104 -6.32703e-08 0
1.10104 -6.65798e-08 0
1.10104 -6.99398e-08 0
1.10104 -7.33484e-08 0
1.10104 -7.68019e-08 0
1.10104 -8.02957e-08 0
1.10104 -8.38252e-08 0
1.10104 -8.73863e-08 0
1.10104 -9.09781e-08 0
1.10104 -9.45985e-08 0
1.10104 -9.82422e-08 0
1.10104 -1.01904e-07 0
1.10104 -1.0558e-07 0
1.10104 -1.09267e-07 0
1.10104 -1.12962e-07 0
1.10104 -1.16666e-07 0
1.10104 -1.20376e-07 0
1.10104 -1.24086e-07 0
1.10104 -1.27792e-07 0
1.10103 -1.3149e-07 0
1.10103 -1.35177e-07 0
1.10103 -1.38851e-07 0
1.10103 -1.42509e-07 0
1.10103 -1.46147e-07 0
1.10103 -1.4976e-07 0
1.10103 -1.53346e-07 0
1.10103 -1.56899e-07 0
1.10103 -1.60418e-07 0
1.10103 -1.63899e-07 0
1.10103 -1.67337e-07 0
1.10103 -1.70731e-07 0
1.10103 -1.74076e-07 0
1.10103 -1.77369e-07 0
1.10103 -1.80606e-07 0
1.10103 -1.83785e-07 0
1.10103 -1.86902e-07 0
1.10103 -1.89953e-07 0
1.10103 -1.92936e-07 0
1.10103 -1.95848e-07 0
1.10103 -1.98685e-07 0
1.10103 -2.01444e-07 0
1.10103 -2.04121e-07 0
1.10103 -2.06715e-07 0
1.10103 -2.09223e-07 0
1.10103 -2.11642e-07 0
1.10103 -2.1397e-07 0
1.10103 -2.16206e-07 0
1.10103 -2.18352e-07 0
1.10103 -2.20418e-07 0
1.10103 -2.22446e-07 0
1.10103 -2.24585e-07 0
1.10103 -2.27436e-07 0
1.10103 -2.33547e-07 0
1.10103 -2.54063e-07 0
1.10103 -3.39506e-07 0
1.10103 -7.169e-07 0
1.10102 -2.35383e-06 0
1.101 -1.01746e-05 0
1.10094 -3.52677e-05 0
1.10036 -0.000186454 0
1.10036 -0.000295721 0
1 -0.000295721 0
1 -3.37565e-08 0
1.02316 3.37565e-08 0
1.05621 8.23146e-08 0
1.0807 -6.19236e-08 0
1.09373 -2.50504e-07 0
1.09912 -3.14856e-07 0
1.1009 -2.53426e-07 0
1.10137 -1.49987e-07 0
1.10146 -6.62274e-08 0
1.10147 -1.74795e-08 0
1.10147 5.06429e-09 0
1.10147 1.36059e-08 0
1.10147 1.59132e-08 0
1.10147 1.5804e-08 0
1.10147 1.48486e-08 0
1.10147 1.35933e-08 0
1.10147 1.21922e-08 0
1.10147 1.06757e-08 0
1.10147 9.04468e-09 0
1.10147 7.29664e-09 0
1.10147 5.43056e-09 0
1.10147 3.44733e-09 0
1.10147 1.34938e-09 0
1.10147 -8.61015e-10 0
1.10147 -3.18108e-09 0
1.10147 -5.60882e-09 0
1.10147 -8.14562e-09 0
1.10147 -1.07939e-08 0
1.10147 -1.35538e-08 0
1.10147 -1.64212e-08 0
1.10147 -1.93896e-08 0
1.10147 -2.24517e-08 0
1.10147 -2.56007e-08 0
1.10147 -2.88289e-08 0
1.10147 -3.21299e-08 0
1.10147 -3.55039e-08 0
1.10147 -3.89515e-08 0
1.10147 -4.24722e-08 0
1.10147 -4.60626e-08 0
1.10147 -4.9718e-08 0
1.10147 -5.34334e-08 0
1.10147 -5.7206e-08 0
1.10147 -6.10346e-08 0
1.10147 -6.4917e-08 0
1.10147 -6.8849e-08 0
1.10147 -7.2825e-08 0
1.10147 -7.68396e-08 0
1.10147 -8.08895e-08 0
1.10147 -8.4972e-08 0
1.10147 -8.90828e-08 0
1.10147 -9.32183e-08 0
1.10147 -9.73764e-08 0
1.10147 -1.01556e-07 0
1.10146 -1.05753e-07 0
1.10146 -1.09962e-07 0
1.10146 -1.14178e-07 0
1.10146 -1.18393e-07 0
1.10146 -1.22602e-07 0
1.10146 -1.26804e-07 0
1.10146 -1.30994e-07 0
1.10146 -1.35171e-07 0
1.10146 -1.39332e-07 0
1.10146 -1.43471e-07 0
1.10146 -1.47586e-07 0
1.10146 -1.51671e-07 0
1.10146 -1.55722e-07 0
1.10146 -1.59736e-07 0
1.10146 -1.63709e-07 0
1.10146 -1.67637e-07 0
1.10146 -1.71516e-07 0
1.10146 -1.75342e-07 0
1.10146 -1.79112e-07 0
1.10146 -1.82821e-07 0
1.10146 -1.86467e-07 0
1.10146 -1.90044e-07 0
1.10146 -1.9355e-07 0
1.10146 -1.96981e-07 0
1.10146 -2.00333e-07 0
1.10146 -2.03603e-07 0
1.10146 -2.06786e-07 0
1.10146 -2.09881e-07 0
1.10146 -2.12882e-07 0
1.10146 -2.15787e-07 0
1.10146 -2.18593e-07 0
1.10146 -2.21297e-07 0
1.10146 -2.23897e-07 0
1.10146 -2.26392e-07 0
1.10146 -2.28781e-07 0
1.10146 -2.31071e-07 0
1.10146 -2.33276e-07 0
1.10146 -2.35431e-07 0
1.10146 -2.37599e-07 0
1.10146 -2.39823e-07 0
1.10146 -2.41963e-07 0
1.10146 -2.42182e-07 0
1.10145 -2.41544e-07 0
1.10145 -2.40584e-07 0
1.10142 -2.40515e-07 0
1.10131 -2.40954e-07 0
1.10075 -2.4098e-07 0
1.10075 -2.41081e-07 0
1 -2.41081e-07 0
1 0.00771908 0
1.02316 -0.00771908 0
1.05621 -0.0110185 0
1.0807 -0.0081617 0
1.09373 -0.00434422 0
1.09912 -0.00179617 0
1.1009 -0.000594027 0
1.10137 -0.000156791 0
1.10146 -3.12039e-05 0
1.10147 -3.4655e-06 0
1.10147 5.38713e-07 0
1.10147 4.87206e-07 0
1.10147 2.0547e-07 0
1.10147 8.31448e-08 0
1.10147 4.51659e-08 0
1.10147 3.45356e-08 0
1.10147 3.09387e-08 0
1.10147 2.8822e-08 0
1.10147 2.68955e-08 0
1.10147 2.48944e-08 0
1.10147 2.27704e-08 0
1.10147 2.05169e-08 0
1.10147 1.8136e-08 0
1.10147 1.56304e-08 0
1.10147 1.30034e-08 0
1.10147 1.02577e-08 0
1.10147 7.39079e-09 0
1.10147 4.39882e-09 0
1.10147 1.28128e-09 0
1.10147 -1.95715e-09 0
1.10147 -5.30825e-09 0
1.10147 -8.76327e-09 0
1.10147 -1.23143e-08 0
1.10147 -1.59521e-08 0
1.10147 -1.96679e-08 0
1.10147 -2.34636e-08 0
1.10147 -2.73403e-08 0
1.10147 -3.1298e-08 0
1.10147 -3.53333e-08 0
1.10147 -3.94404e-08 0
1.10147 -4.36137e-08 0
1.10147 -4.78493e-08 0
1.10147 -5.21462e-08 0
1.10147 -5.65025e-08 0
1.10147 -6.09132e-08 0
1.10147 -6.53715e-08 0
1.10147 -6.9871e-08 0
1.10147 -7.44097e-08 0
1.10147 -7.89828e-08 0
1.10147 -8.3584e-08 0
1.10147 -8.8211e-08 0
1.10147 -9.28646e-08 0
1.10147 -9.75464e-08 0
1.10146 -1.02254e-07 0
1.10146 -1.06979e-07 0
1.10146 -1.11705e-07 0
1.10146 -1.16425e-07 0
1.10146 -1.21134e-07 0
1.10146 -1.25831e-07 0
1.10146 -1.30513e-07 0
1.10146 -1.3518e-07 0
1.10146 -1.39826e-07 0
1.10146 -1.44448e-07 0
1.10146 -1.49039e-07 0
1.10146 -1.53595e-07 0
1.10146 -1.58112e-07 0
1.10146 -1.62586e-07 0
1.10146 -1.67012e-07 0
1.10146 -1.71387e-07 0
1.10146 -1.75706e-07 0
1.10146 -1.79965e-07 0
1.10146 -1.84159e-07 0
1.10146 -1.88285e-07 0
1.10146 -1.92338e-07 0
1.10146 -1.96314e-07 0
1.10146 -2.00209e-07 0
1.10146 -2.04018e-07 0
1.10146 -2.07739e-07 0
1.10146 -2.11366e-07 0
1.10146 -2.14896e-07 0
1.10146 -2.18325e-07 0
1.10146 -2.21649e-07 0
1.10146 -2.24865e-07 0
1.10146 -2.27969e-07 0
1.10146 -2.30958e-07 0
1.10146 -2.3383e-07 0
1.10146 -2.36582e-07 0
1.10146 -2.39213e-07 0
1.10146 -2.41723e-07 0
1.10146 -2.44101e-07 0
1.10146 -2.46265e-07 0
1.10146 -2.47743e-07 0
1.10146 -2.46097e-07 0
1.10146 -2.30066e-07 0
1.10146 -1.44987e-07 0
1.10145 2.33741e-07 0
1.10145 1.87274e-06 0
1.10142 9.69357e-06 0
1.10131 3.47857e-05 0
1.10075 0.000185972 0
1.10075 0.000295238 0
1 0.000295238 0
1 0.0166599 0
1.02682 -0.0166599 0
1.06037 -0.0222024 0
1.08354 -0.0158853 0
1.09506 -0.00818233 0
1.09944 -0.0032556 0
1.10073 -0.00102489 0
1.10101 -0.000251554 0
1.10105 -4.33115e-05 0
1.10105 -2.14952e-06 0
1.10104 2.01358e-06 0
1.10104 1.08645e-06 0
1.10104 3.95286e-07 0
1.10104 1.43744e-07 0
1.10104 7.25106e-08 0
1.10104 5.43777e-08 0
1.10104 4.91501e-08 0
1.10104 4.65704e-08 0
1.10104 4.43779e-08 0
1.10104 4.213e-08 0
1.10104 3.975e-08 0
1.10104 3.72277e-08 0
1.10104 3.45657e-08 0
1.10104 3.17669e-08 0
1.10104 2.88355e-08 0
1.10104 2.57758e-08 0
1.10104 2.25843e-08 0
1.10104 1.92552e-08 0
1.10104 1.5787e-08 0
1.10104 1.21852e-08 0
1.10104 8.45933e-09 0
1.10104 4.61973e-09 0
1.10104 6.748e-10 0
1.10104 -3.36587e-09 0
1.10104 -7.48946e-09 0
1.10104 -1.17e-08 0
1.10104 -1.59989e-08 0
1.10104 -2.03867e-08 0
1.10104 -2.48598e-08 0
1.10104 -2.94117e-08 0
1.10104 -3.40355e-08 0
1.10104 -3.87263e-08 0
1.10104 -4.34834e-08 0
1.10104 -4.83054e-08 0
1.10104 -5.31867e-08 0
1.10104 -5.81191e-08 0
1.10104 -6.30951e-08 0
1.10104 -6.81138e-08 0
1.10104 -7.31694e-08 0
1.10104 -7.8252e-08 0
1.10104 -8.33605e-08 0
1.10104 -8.84979e-08 0
1.10104 -9.36695e-08 0
1.10104 -9.88753e-08 0
1.10104 -1.04101e-07 0
1.10104 -1.09328e-07 0
1.10104 -1.14541e-07 0
1.10104 -1.19739e-07 0
1.10104 -1.2492e-07 0
1.10103 -1.30085e-07 0
1.10103 -1.35232e-07 0
1.10103 -1.40355e-07 0
1.10103 -1.45448e-07 0
1.10103 -1.50507e-07 0
1.10103 -1.55525e-07 0
1.10103 -1.60498e-07 0
1.10103 -1.65422e-07 0
1.10103 -1.70293e-07 0
1.10103 -1.75106e-07 0
1.10103 -1.79856e-07 0
1.10103 -1.84538e-07 0
1.10103 -1.89148e-07 0
1.10103 -1.93682e-07 0
1.10103 -1.98134e-07 0
1.10103 -2.025e-07 0
1.10103 -2.06775e-07 0
1.10103 -2.10955e-07 0
1.10103 -2.15036e-07 0
1.10103 -2.19013e-07 0
1.10103 -2.22881e-07 0
1.10103 -2.26638e-07 0
1.10103 -2.30277e-07 0
1.10103 -2.33796e-07 0
1.10103 -2.37191e-07 0
1.10103 -2.40459e-07 0
1.10103 -2.43595e-07 0
1.10103 -2.46598e-07 0
1.10103 -2.49464e-07 0
1.10103 -2.52189e-07 0
1.10103 -2.54744e-07 0
1.10103 -2.56964e-07 0
1.10103 -2.58022e-07 0
1.10103 -2.53802e-07 0
1.10103 -2.25591e-07 0
1.10103 -8.25511e-08 0