# vtk DataFile Version 2.0
FlowField
ASCII
DATASET STRUCTURED_GRID
DIMENSIONS 102 1 12 
POINTS 1224 double
0 0 0
0.4 0 0
0.8 0 0
1.2 0 0
1.6 0 0
2 0 0
2.4 0 0
2.8 0 0
3.2 0 0
3.6 0 0
4 0 0
4.4 0 0
4.8 0 0
5.2 0 0
5.6 0 0
6 0 0
6.4 0 0
6.8 0 0
7.2 0 0
7.6 0 0
8 0 0
8.4 0 0
8.8 0 0
9.2 0 0
9.6 0 0
10 0 0
10.4 0 0
10.8 0 0
11.2 0 0
11.6 0 0
12 0 0
12.4 0 0
12.8 0 0
13.2 0 0
13.6 0 0
14 0 0
14.4 0 0
14.8 0 0
15.2 0 0
15.6 0 0
16 0 0
16.4 0 0
16.8 0 0
17.2 0 0
17.6 0 0
18 0 0
18.4 0 0
18.8 0 0
19.2 0 0
19.6 0 0
20 0 0
20.4 0 0
20.8 0 0
21.2 0 0
21.6 0 0
22 0 0
22.4 0 0
22.8 0 0
23.2 0 0
23.6 0 0
24 0 0
24.4 0 0
24.8 0 0
25.2 0 0
25.6 0 0
26 0 0
26.4 0 0
26.8 0 0
27.2 0 0
27.6 0 0
28 0 0
28.4 0 0
28.8 0 0
29.2 0 0
29.6 0 0
30 0 0
30.4 0 0
30.8 0 0
31.2 0 0
31.6 0 0
32 0 0
32.4 0 0
32.8 0 0
33.2 0 0
33.6 0 0
34 0 0
34.4 0 0
34.8 0 0
35.2 0 0
35.6 0 0
36 0 0
36.4 0 0
36.8 0 0
37.2 0 0
37.6 0 0
38 0 0
38.4 0 0
38.8 0 0
39.2 0 0
39.6 0 0
40 0 0
40.4 0 0
0 0.1 0
0.4 0.1 0
0.8 0.1 0
1.2 0.1 0
1.6 0.1 0
2 0.1 0
2.4 0.1 0
2.8 0.1 0
3.2 0.1 0
3.6 0.1 0
4 0.1 0
4.4 0.1 0
4.8 0.1 0
5.2 0.1 0
5.6 0.1 0
6 0.1 0
6.4 0.1 0
6.8 0.1 0
7.2 0.1 0
7.6 0.1 0
8 0.1 0
8.4 0.1 0
8.8 0.1 0
9.2 0.1 0
9.6 0.1 0
10 0.1 0
10.4 0.1 0
10.8 0.1 0
11.2 0.1 0
11.6 0.1 0
12 0.1 0
12.4 0.1 0
12.8 0.1 0
13.2 0.1 0
13.6 0.1 0
14 0.1 0
14.4 0.1 0
14.8 0.1 0
15.2 0.1 0
15.6 0.1 0
16 0.1 0
16.4 0.1 0
16.8 0.1 0
17.2 0.1 0
17.6 0.1 0
18 0.1 0
18.4 0.1 0
18.8 0.1 0
19.2 0.1 0
19.6 0.1 0
20 0.1 0
20.4 0.1 0
20.8 0.1 0
21.2 0.1 0
21.6 0.1 0
22 0.1 0
22.4 0.1 0
22.8 0.1 0
23.2 0.1 0
23.6 0.1 0
24 0.1 0
24.4 0.1 0
24.8 0.1 0
25.2 0.1 0
25.6 0.1 0
26 0.1 0
26.4 0.1 0
26.8 0.1 0
27.2 0.1 0
27.6 0.1 0
28 0.1 0
28.4 0.1 0
28.8 0.1 0
29.2 0.1 0
29.6 0.1 0
30 0.1 0
30.4 0.1 0
30.8 0.1 0
31.2 0.1 0
31.6 0.1 0
32 0.1 0
32.4 0.1 0
32.8 0.1 0
33.2 0.1 0
33.6 0.1 0
34 0.1 0
34.4 0.1 0
34.8 0.1 0
35.2 0.1 0
35.6 0.1 0
36 0.1 0
36.4 0.1 0
36.8 0.1 0
37.2 0.1 0
37.6 0.1 0
38 0.1 0
38.4 0.1 0
38.8 0.1 0
39.2 0.1 0
39.6 0.1 0
40 0.1 0
40.4 0.1 0
0 0.2 0
0.4 0.2 0
0.8 0.2 0
1.2 0.2 0
1.6 0.2 0
2 0.2 0
2.4 0.2 0
2.8 0.2 0
3.2 0.2 0
3.6 0.2 0
4 0.2 0
4.4 0.2 0
4.8 0.2 0
5.2 0.2 0
5.6 0.2 0
6 0.2 0
6.4 0.2 0
6.8 0.2 0
7.2 0.2 0
7.6 0.2 0
8 0.2 0
8.4 0.2 0
8.8 0.2 0
9.2 0.2 0
9.6 0.2 0
10 0.2 0
10.4 0.2 0
10.8 0.2 0
11.2 0.2 0
11.6 0.2 0
12 0.2 0
12.4 0.2 0
12.8 0.2 0
13.2 0.2 0
13.6 0.2 0
14 0.2 0
14.4 0.2 0
14.8 0.2 0
15.2 0.2 0
15.6 0.2 0
16 0.2 0
16.4 0.2 0
16.8 0.2 0
17.2 0.2 0
17.6 0.2 0
18 0.2 0
18.4 0.2 0
18.8 0.2 0
19.2 0.2 0
19.6 0.2 0
20 0.2 0
20.4 0.2 0
20.8 0.2 0
21.2 0.2 0
21.6 0.2 0
22 0.2 0
22.4 0.2 0
22.8 0.2 0
23.2 0.2 0
23.6 0.2 0
24 0.2 0
24.4 0.2 0
24.8 0.2 0
25.2 0.2 0
25.6 0.2 0
26 0.2 0
26.4 0.2 0
26.8 0.2 0
27.2 0.2 0
27.6 0.2 0
28 0.2 0
28.4 0.2 0
28.8 0.2 0
29.2 0.2 0
29.6 0.2 0
30 0.2 0
30.4 0.2 0
30.8 0.2 0
31.2 0.2 0
31.6 0.2 0
32 0.2 0
32.4 0.2 0
32.8 0.2 0
33.2 0.2 0
33.6 0.2 0
34 0.2 0
34.4 0.2 0
34.8 0.2 0
35.2 0.2 0
35.6 0.2 0
36 0.2 0
36.4 0.2 0
36.8 0.2 0
37.2 0.2 0
37.6 0.2 0
38 0.2 0
38.4 0.2 0
38.8 0.2 0
39.2 0.2 0
39.6 0.2 0
40 0.2 0
40.4 0.2 0
0 0.3 0
0.4 0.3 0
0.8 0.3 0
1.2 0.3 0
1.6 0.3 0
2 0.3 0
2.4 0.3 0
2.8 0.3 0
3.2 0.3 0
3.6 0.3 0
4 0.3 0
4.4 0.3 0
4.8 0.3 0
5.2 0.3 0
5.6 0.3 0
6 0.3 0
6.4 0.3 0
6.8 0.3 0
7.2 0.3 0
7.6 0.3 0
8 0.3 0
8.4 0.3 0
8.8 0.3 0
9.2 0.3 0
9.6 0.3 0
10 0.3 0
10.4 0.3 0
10.8 0.3 0
11.2 0.3 0
11.6 0.3 0
12 0.3 0
12.4 0.3 0
12.8 0.3 0
13.2 0.3 0
13.6 0.3 0
14 0.3 0
14.4 0.3 0
14.8 0.3 0
15.2 0.3 0
15.6 0.3 0
16 0.3 0
16.4 0.3 0
16.8 0.3 0
17.2 0.3 0
17.6 0.3 0
18 0.3 0
18.4 0.3 0
18.8 0.3 0
19.2 0.3 0
19.6 0.3 0
20 0.3 0
20.4 0.3 0
20.8 0.3 0
21.2 0.3 0
21.6 0.3 0
22 0.3 0
22.4 0.3 0
22.8 0.3 0
23.2 0.3 0
23.6 0.3 0
24 0.3 0
24.4 0.3 0
24.8 0.3 0
25.2 0.3 0
25.6 0.3 0
26 0.3 0
26.4 0.3 0
26.8 0.3 0
27.2 0.3 0
27.6 0.3 0
28 0.3 0
28.4 0.3 0
28.8 0.3 0
29.2 0.3 0
29.6 0.3 0
30 0.3 0
30.4 0.3 0
30.8 0.3 0
31.2 0.3 0
31.6 0.3 0
32 0.3 0
32.4 0.3 0
32.8 0.3 0
33.2 0.3 0
33.6 0.3 0
34 0.3 0
34.4 0.3 0
34.8 0.3 0
35.2 0.3 0
35.6 0.3 0
36 0.3 0
36.4 0.3 0
36.8 0.3 0
37.2 0.3 0
37.6 0.3 0
38 0.3 0
38.4 0.3 0
38.8 0.3 0
39.2 0.3 0
39.6 0.3 0
40 0.3 0
40.4 0.3 0
0 0.4 0
0.4 0.4 0
0.8 0.4 0
1.2 0.4 0
1.6 0.4 0
2 0.4 0
2.4 0.4 0
2.8 0.4 0
3.2 0.4 0
3.6 0.4 0
4 0.4 0
4.4 0.4 0
4.8 0.4 0
5.2 0.4 0
5.6 0.4 0
6 0.4 0
6.4 0.4 0
6.8 0.4 0
7.2 0.4 0
7.6 0.4 0
8 0.4 0
8.4 0.4 0
8.8 0.4 0
9.2 0.4 0
9.6 0.4 0
10 0.4 0
10.4 0.4 0
10.8 0.4 0
11.2 0.4 0
11.6 0.4 0
12 0.4 0
12.4 0.4 0
12.8 0.4 0
13.2 0.4 0
13.6 0.4 0
14 0.4 0
14.4 0.4 0
14.8 0.4 0
15.2 0.4 0
15.6 0.4 0
16 0.4 0
16.4 0.4 0
16.8 0.4 0
17.2 0.4 0
17.6 0.4 0
18 0.4 0
18.4 0.4 0
18.8 0.4 0
19.2 0.4 0
19.6 0.4 0
20 0.4 0
20.4 0.4 0
20.8 0.4 0
21.2 0.4 0
21.6 0.4 0
22 0.4 0
22.4 0.4 0
22.8 0.4 0
23.2 0.4 0
23.6 0.4 0
24 0.4 0
24.4 0.4 0
24.8 0.4 0
25.2 0.4 0
25.6 0.4 0
26 0.4 0
26.4 0.4 0
26.8 0.4 0
27.2 0.4 0
27.6 0.4 0
28 0.4 0
28.4 0.4 0
28.8 0.4 0
29.2 0.4 0
29.6 0.4 0
30 0.4 0
30.4 0.4 0
30.8 0.4 0
31.2 0.4 0
31.6 0.4 0
32 0.4 0
32.4 0.4 0
32.8 0.4 0
33.2 0.4 0
33.6 0.4 0
34 0.4 0
34.4 0.4 0
34.8 0.4 0
35.2 0.4 0
35.6 0.4 0
36 0.4 0
36.4 0.4 0
36.8 0.4 0
37.2 0.4 0
37.6 0.4 0
38 0.4 0
38.4 0.4 0
38.8 0.4 0
39.2 0.4 0
39.6 0.4 0
40 0.4 0
40.4 0.4 0
0 0.5 0
0.4 0.5 0
0.8 0.5 0
1.2 0.5 0
1.6 0.5 0
2 0.5 0
2.4 0.5 0
2.8 0.5 0
3.2 0.5 0
3.6 0.5 0
4 0.5 0
4.4 0.5 0
4.8 0.5 0
5.2 0.5 0
5.6 0.5 0
6 0.5 0
6.4 0.5 0
6.8 0.5 0
7.2 0.5 0
7.6 0.5 0
8 0.5 0
8.4 0.5 0
8.8 0.5 0
9.2 0.5 0
9.6 0.5 0
10 0.5 0
10.4 0.5 0
10.8 0.5 0
11.2 0.5 0
11.6 0.5 0
12 0.5 0
12.4 0.5 0
12.8 0.5 0
13.2 0.5 0
13.6 0.5 0
14 0.5 0
14.4 0.5 0
14.8 0.5 0
15.2 0.5 0
15.6 0.5 0
16 0.5 0
16.4 0.5 0
16.8 0.5 0
17.2 0.5 0
17.6 0.5 0
18 0.5 0
18.4 0.5 0
18.8 0.5 0
19.2 0.5 0
19.6 0.5 0
20 0.5 0
20.4 0.5 0
20.8 0.5 0
21.2 0.5 0
21.6 0.5 0
22 0.5 0
22.4 0.5 0
22.8 0.5 0
23.2 0.5 0
23.6 0.5 0
24 0.5 0
24.4 0.5 0
24.8 0.5 0
25.2 0.5 0
25.6 0.5 0
26 0.5 0
26.4 0.5 0
26.8 0.5 0
27.2 0.5 0
27.6 0.5 0
28 0.5 0
28.4 0.5 0
28.8 0.5 0
29.2 0.5 0
29.6 0.5 0
30 0.5 0
30.4 0.5 0
30.8 0.5 0
31.2 0.5 0
31.6 0.5 0
32 0.5 0
32.4 0.5 0
32.8 0.5 0
33.2 0.5 0
33.6 0.5 0
34 0.5 0
34.4 0.5 0
34.8 0.5 0
35.2 0.5 0
35.6 0.5 0
36 0.5 0
36.4 0.5 0
36.8 0.5 0
37.2 0.5 0
37.6 0.5 0
38 0.5 0
38.4 0.5 0
38.8 0.5 0
39.2 0.5 0
39.6 0.5 0
40 0.5 0
40.4 0.5 0
0 0.6 0
0.4 0.6 0
0.8 0.6 0
1.2 0.6 0
1.6 0.6 0
2 0.6 0
2.4 0.6 0
2.8 0.6 0
3.2 0.6 0
3.6 0.6 0
4 0.6 0
4.4 0.6 0
4.8 0.6 0
5.2 0.6 0
5.6 0.6 0
6 0.6 0
6.4 0.6 0
6.8 0.6 0
7.2 0.6 0
7.6 0.6 0
8 0.6 0
8.4 0.6 0
8.8 0.6 0
9.2 0.6 0
9.6 0.6 0
10 0.6 0
10.4 0.6 0
10.8 0.6 0
11.2 0.6 0
11.6 0.6 0
12 0.6 0
12.4 0.6 0
12.8 0.6 0
13.2 0.6 0
13.6 0.6 0
14 0.6 0
14.4 0.6 0
14.8 0.6 0
15.2 0.6 0
15.6 0.6 0
16 0.6 0
16.4 0.6 0
16.8 0.6 0
17.2 0.6 0
17.6 0.6 0
18 0.6 0
18.4 0.6 0
18.8 0.6 0
19.2 0.6 0
19.6 0.6 0
20 0.6 0
20.4 0.6 0
20.8 0.6 0
21.2 0.6 0
21.6 0.6 0
22 0.6 0
22.4 0.6 0
22.8 0.6 0
23.2 0.6 0
23.6 0.6 0
24 0.6 0
24.4 0.6 0
24.8 0.6 0
25.2 0.6 0
25.6 0.6 0
26 0.6 0
26.4 0.6 0
26.8 0.6 0
27.2 0.6 0
27.6 0.6 0
28 0.6 0
28.4 0.6 0
28.8 0.6 0
29.2 0.6 0
29.6 0.6 0
30 0.6 0
30.4 0.6 0
30.8 0.6 0
31.2 0.6 0
31.6 0.6 0
32 0.6 0
32.4 0.6 0
32.8 0.6 0
33.2 0.6 0
33.6 0.6 0
34 0.6 0
34.4 0.6 0
34.8 0.6 0
35.2 0.6 0
35.6 0.6 0
36 0.6 0
36.4 0.6 0
36.8 0.6 0
37.2 0.6 0
37.6 0.6 0
38 0.6 0
38.4 0.6 0
38.8 0.6 0
39.2 0.6 0
39.6 0.6 0
40 0.6 0
40.4 0.6 0
0 0.7 0
0.4 0.7 0
0.8 0.7 0
1.2 0.7 0
1.6 0.7 0
2 0.7 0
2.4 0.7 0
2.8 0.7 0
3.2 0.7 0
3.6 0.7 0
4 0.7 0
4.4 0.7 0
4.8 0.7 0
5.2 0.7 0
5.6 0.7 0
6 0.7 0
6.4 0.7 0
6.8 0.7 0
7.2 0.7 0
7.6 0.7 0
8 0.7 0
8.4 0.7 0
8.8 0.7 0
9.2 0.7 0
9.6 0.7 0
10 0.7 0
10.4 0.7 0
10.8 0.7 0
11.2 0.7 0
11.6 0.7 0
12 0.7 0
12.4 0.7 0
12.8 0.7 0
13.2 0.7 0
13.6 0.7 0
14 0.7 0
14.4 0.7 0
14.8 0.7 0
15.2 0.7 0
15.6 0.7 0
16 0.7 0
16.4 0.7 0
16.8 0.7 0
17.2 0.7 0
17.6 0.7 0
18 0.7 0
18.4 0.7 0
18.8 0.7 0
19.2 0.7 0
19.6 0.7 0
20 0.7 0
20.4 0.7 0
20.8 0.7 0
21.2 0.7 0
21.6 0.7 0
22 0.7 0
22.4 0.7 0
22.8 0.7 0
23.2 0.7 0
23.6 0.7 0
24 0.7 0
24.4 0.7 0
24.8 0.7 0
25.2 0.7 0
25.6 0.7 0
26 0.7 0
26.4 0.7 0
26.8 0.7 0
27.2 0.7 0
27.6 0.7 0
28 0.7 0
28.4 0.7 0
28.8 0.7 0
29.2 0.7 0
29.6 0.7 0
30 0.7 0
30.4 0.7 0
30.8 0.7 0
31.2 0.7 0
31.6 0.7 0
32 0.7 0
32.4 0.7 0
32.8 0.7 0
33.2 0.7 0
33.6 0.7 0
34 0.7 0
34.4 0.7 0
34.8 0.7 0
35.2 0.7 0
35.6 0.7 0
36 0.7 0
36.4 0.7 0
36.8 0.7 0
37.2 0.7 0
37.6 0.7 0
38 0.7 0
38.4 0.7 0
38.8 0.7 0
39.2 0.7 0
39.6 0.7 0
40 0.7 0
40.4 0.7 0
0 0.8 0
0.4 0.8 0
0.8 0.8 0
1.2 0.8 0
1.6 0.8 0
2 0.8 0
2.4 0.8 0
2.8 0.8 0
3.2 0.8 0
3.6 0.8 0
4 0.8 0
4.4 0.8 0
4.8 0.8 0
5.2 0.8 0
5.6 0.8 0
6 0.8 0
6.4 0.8 0
6.8 0.8 0
7.2 0.8 0
7.6 0.8 0
8 0.8 0
8.4 0.8 0
8.8 0.8 0
9.2 0.8 0
9.6 0.8 0
10 0.8 0
10.4 0.8 0
10.8 0.8 0
11.2 0.8 0
11.6 0.8 0
12 0.8 0
12.4 0.8 0
12.8 0.8 0
13.2 0.8 0
13.6 0.8 0
14 0.8 0
14.4 0.8 0
14.8 0.8 0
15.2 0.8 0
15.6 0.8 0
16 0.8 0
16.4 0.8 0
16.8 0.8 0
17.2 0.8 0
17.6 0.8 0
18 0.8 0
18.4 0.8 0
18.8 0.8 0
19.2 0.8 0
19.6 0.8 0
20 0.8 0
20.4 0.8 0
20.8 0.8 0
21.2 0.8 0
21.6 0.8 0
22 0.8 0
22.4 0.8 0
22.8 0.8 0
23.2 0.8 0
23.6 0.8 0
24 0.8 0
24.4 0.8 0
24.8 0.8 0
25.2 0.8 0
25.6 0.8 0
26 0.8 0
26.4 0.8 0
26.8 0.8 0
27.2 0.8 0
27.6 0.8 0
28 0.8 0
28.4 0.8 0
28.8 0.8 0
29.2 0.8 0
29.6 0.8 0
30 0.8 0
30.4 0.8 0
30.8 0.8 0
31.2 0.8 0
31.6 0.8 0
32 0.8 0
32.4 0.8 0
32.8 0.8 0
33.2 0.8 0
33.6 0.8 0
34 0.8 0
34.4 0.8 0
34.8 0.8 0
35.2 0.8 0
35.6 0.8 0
36 0.8 0
36.4 0.8 0
36.8 0.8 0
37.2 0.8 0
37.6 0.8 0
38 0.8 0
38.4 0.8 0
38.8 0.8 0
39.2 0.8 0
39.6 0.8 0
40 0.8 0
40.4 0.8 0
0 0.9 0
0.4 0.9 0
0.8 0.9 0
1.2 0.9 0
1.6 0.9 0
2 0.9 0
2.4 0.9 0
2.8 0.9 0
3.2 0.9 0
3.6 0.9 0
4 0.9 0
4.4 0.9 0
4.8 0.9 0
5.2 0.9 0
5.6 0.9 0
6 0.9 0
6.4 0.9 0
6.8 0.9 0
7.2 0.9 0
7.6 0.9 0
8 0.9 0
8.4 0.9 0
8.8 0.9 0
9.2 0.9 0
9.6 0.9 0
10 0.9 0
10.4 0.9 0
10.8 0.9 0
11.2 0.9 0
11.6 0.9 0
12 0.9 0
12.4 0.9 0
12.8 0.9 0
13.2 0.9 0
13.6 0.9 0
14 0.9 0
14.4 0.9 0
14.8 0.9 0
15.2 0.9 0
15.6 0.9 0
16 0.9 0
16.4 0.9 0
16.8 0.9 0
17.2 0.9 0
17.6 0.9 0
18 0.9 0
18.4 0.9 0
18.8 0.9 0
19.2 0.9 0
19.6 0.9 0
20 0.9 0
20.4 0.9 0
20.8 0.9 0
21.2 0.9 0
21.6 0.9 0
22 0.9 0
22.4 0.9 0
22.8 0.9 0
23.2 0.9 0
23.6 0.9 0
24 0.9 0
24.4 0.9 0
24.8 0.9 0
25.2 0.9 0
25.6 0.9 0
26 0.9 0
26.4 0.9 0
26.8 0.9 0
27.2 0.9 0
27.6 0.9 0
28 0.9 0
28.4 0.9 0
28.8 0.9 0
29.2 0.9 0
29.6 0.9 0
30 0.9 0
30.4 0.9 0
30.8 0.9 0
31.2 0.9 0
31.6 0.9 0
32 0.9 0
32.4 0.9 0
32.8 0.9 0
33.2 0.9 0
33.6 0.9 0
34 0.9 0
34.4 0.9 0
34.8 0.9 0
35.2 0.9 0
35.6 0.9 0
36 0.9 0
36.4 0.9 0
36.8 0.9 0
37.2 0.9 0
37.6 0.9 0
38 0.9 0
38.4 0.9 0
38.8 0.9 0
39.2 0.9 0
39.6 0.9 0
40 0.9 0
40.4 0.9 0
0 1 0
0.4 1 0
0.8 1 0
1.2 1 0
1.6 1 0
2 1 0
2.4 1 0
2.8 1 0
3.2 1 0
3.6 1 0
4 1 0
4.4 1 0
4.8 1 0
5.2 1 0
5.6 1 0
6 1 0
6.4 1 0
6.8 1 0
7.2 1 0
7.6 1 0
8 1 0
8.4 1 0
8.8 1 0
9.2 1 0
9.6 1 0
10 1 0
10.4 1 0
10.8 1 0
11.2 1 0
11.6 1 0
12 1 0
12.4 1 0
12.8 1 0
13.2 1 0
13.6 1 0
14 1 0
14.4 1 0
14.8 1 0
15.2 1 0
15.6 1 0
16 1 0
16.4 1 0
16.8 1 0
17.2 1 0
17.6 1 0
18 1 0
18.4 1 0
18.8 1 0
19.2 1 0
19.6 1 0
20 1 0
20.4 1 0
20.8 1 0
21.2 1 0
21.6 1 0
22 1 0
22.4 1 0
22.8 1 0
23.2 1 0
23.6 1 0
24 1 0
24.4 1 0
24.8 1 0
25.2 1 0
25.6 1 0
26 1 0
26.4 1 0
26.8 1 0
27.2 1 0
27.6 1 0
28 1 0
28.4 1 0
28.8 1 0
29.2 1 0
29.6 1 0
30 1 0
30.4 1 0
30.8 1 0
31.2 1 0
31.6 1 0
32 1 0
32.4 1 0
32.8 1 0
33.2 1 0
33.6 1 0
34 1 0
34.4 1 0
34.8 1 0
35.2 1 0
35.6 1 0
36 1 0
36.4 1 0
36.8 1 0
37.2 1 0
37.6 1 0
38 1 0
38.4 1 0
38.8 1 0
39.2 1 0
39.6 1 0
40 1 0
40.4 1 0
0 1.1 0
0.4 1.1 0
0.8 1.1 0
1.2 1.1 0
1.6 1.1 0
2 1.1 0
2.4 1.1 0
2.8 1.1 0
3.2 1.1 0
3.6 1.1 0
4 1.1 0
4.4 1.1 0
4.8 1.1 0
5.2 1.1 0
5.6 1.1 0
6 1.1 0
6.4 1.1 0
6.8 1.1 0
7.2 1.1 0
7.6 1.1 0
8 1.1 0
8.4 1.1 0
8.8 1.1 0
9.2 1.1 0
9.6 1.1 0
10 1.1 0
10.4 1.1 0
10.8 1.1 0
11.2 1.1 0
11.6 1.1 0
12 1.1 0
12.4 1.1 0
12.8 1.1 0
13.2 1.1 0
13.6 1.1 0
14 1.1 0
14.4 1.1 0
14.8 1.1 0
15.2 1.1 0
15.6 1.1 0
16 1.1 0
16.4 1.1 0
16.8 1.1 0
17.2 1.1 0
17.6 1.1 0
18 1.1 0
18.4 1.1 0
18.8 1.1 0
19.2 1.1 0
19.6 1.1 0
20 1.1 0
20.4 1.1 0
20.8 1.1 0
21.2 1.1 0
21.6 1.1 0
22 1.1 0
22.4 1.1 0
22.8 1.1 0
23.2 1.1 0
23.6 1.1 0
24 1.1 0
24.4 1.1 0
24.8 1.1 0
25.2 1.1 0
25.6 1.1 0
26 1.1 0
26.4 1.1 0
26.8 1.1 0
27.2 1.1 0
27.6 1.1 0
28 1.1 0
28.4 1.1 0
28.8 1.1 0
29.2 1.1 0
29.6 1.1 0
30 1.1 0
30.4 1.1 0
30.8 1.1 0
31.2 1.1 0
31.6 1.1 0
32 1.1 0
32.4 1.1 0
32.8 1.1 0
33.2 1.1 0
33.6 1.1 0
34 1.1 0
34.4 1.1 0
34.8 1.1 0
35.2 1.1 0
35.6 1.1 0
36 1.1 0
36.4 1.1 0
36.8 1.1 0
37.2 1.1 0
37.6 1.1 0
38 1.1 0
38.4 1.1 0
38.8 1.1 0
39.2 1.1 0
39.6 1.1 0
40 1.1 0
40.4 1.1 0

POINT_DATA 1224

SCALARS v double
LOOKUP_TABLE default
0
0
0
0
0
0
0
0
0
0
0
0
0
0
0
0
0
0
0
0
0
0
0
0
0
0
0
0
0
0
0
0
0
0
0
0
0
0
0
0
0
0
0
0
0
0
0
0
0
0
0
0
0
0
0
0
0
0
0
0
0
0
0
0
0
0
0
0
0
0
0
0
0
0
0
0
0
0
0
0
0
0
0
0
0
0
0
0
0
0
0
0
0
0
0
0
0
0
0
0
0
0
-0.00751344
0.00751344
0.0146552
0.0162812
0.0149618
0.0125487
0.0100747
0.0079588
0.00628243
0.00499021
0.00399567
0.00322206
0.00261164
0.00212353
0.00172905
0.00140773
0.00114463
0.000928458
0.000750534
0.000604012
0.000483416
0.00038431
0.000303062
0.00023667
0.000182641
0.00013889
0.000103669
7.55096e-05
5.31768e-05
3.5632e-05
2.20053e-05
1.15541e-05
3.68739e-06
-2.3166e-06
-6.66798e-06
-9.65078e-06
-1.15441e-05
-1.25923e-05
-1.29995e-05
-1.29324e-05
-1.25253e-05
-1.18844e-05
-1.10931e-05
-1.02155e-05
-9.30023e-06
-8.3833e-06
-7.49065e-06
-6.64025e-06
-5.84386e-06
-5.10841e-06
-4.43721e-06
-3.83085e-06
-3.28797e-06
-2.80582e-06
-2.38074e-06
-2.00853e-06
-1.68469e-06
-1.40466e-06
-1.16394e-06
-9.58197e-07
-7.83351e-07
-6.35609e-07
-5.11488e-07
-4.07828e-07
-3.21785e-07
-2.50825e-07
-1.92704e-07
-1.4545e-07
-1.07341e-07
-7.68832e-08
-5.27885e-08
-3.39521e-08
-1.94393e-08
-8.43686e-09
-4.34942e-10
5.1912e-09
9.07044e-09
1.1612e-08
1.3127e-08
1.38613e-08
1.40106e-08
1.37316e-08
1.31437e-08
1.23567e-08
1.13918e-08
1.0462e-08
8.91401e-09
8.63776e-09
8.26094e-10
6.91667e-09
-8.63998e-08
-1.05221e-08
-1.25991e-06
-4.79315e-07
-1.73479e-05
-1.02471e-05
-0.000240812
-0.000168711
-0.00349307
-0.00153827
-0.0477942
-0.0477942
-0.00621567
0.00621567
0.0142999
0.0183624
0.0194157
0.0185586
0.0167091
0.0144992
0.0122985
0.0102885
0.00853603
0.00704673
0.00579863
0.00476022
0.00389924
0.00318648
0.00259682
0.00210924
0.00170635
0.00137381
0.00109978
0.000874466
0.000689742
0.000538828
0.000416056
0.000316675
0.000236696
0.000172766
0.000122067
8.22327e-05
5.12826e-05
2.75371e-05
9.65148e-06
-3.77125e-06
-1.35604e-05
-2.03695e-05
-2.47871e-05
-2.73273e-05
-2.84263e-05
-2.84463e-05
-2.76826e-05
-2.6372e-05
-2.47018e-05
-2.28177e-05
-2.08309e-05
-1.88245e-05
-1.68593e-05
-1.49779e-05
-1.32086e-05
-1.15689e-05
-1.00678e-05
-8.70796e-06
-7.48735e-06
-6.40075e-06
-5.4407e-06
-4.59833e-06
-3.864e-06
-3.22782e-06
-2.67992e-06
-2.21079e-06
-1.81139e-06
-1.47329e-06
-1.18871e-06
-9.50595e-07
-7.5255e-07
-5.88876e-07
-4.54512e-07
-3.44999e-07
-2.5644e-07
-1.85445e-07
-1.29083e-07
-8.48392e-08
-5.05663e-08
-2.44533e-08
-4.98911e-09
8.89446e-09
1.85321e-08
2.49207e-08
2.88322e-08
3.08703e-08
3.1509e-08
3.11234e-08
3.00003e-08
2.83915e-08
2.63844e-08
2.43985e-08
2.13642e-08
2.08763e-08
7.95236e-09
2.58599e-08
-1.19648e-07
1.24732e-07
-1.8161e-06
1.25002e-06
-2.50797e-05
1.34162e-05
-0.000347831
0.000140672
-0.00482119
0.000857418
-0.061277
-0.061277
-0.00401801
0.00401801
0.00987185
0.0135457
0.0153924
0.0158461
0.0153379
0.0142366
0.0128244
0.0112996
0.00979083
0.00837399
0.00708835
0.00594912
0.00495668
0.00410299
0.00337575
0.002761
0.00224467
0.00181342
0.00145505
0.00115869
0.000914799
0.000715083
0.000552403
0.000420646
0.000314605
0.000229864
0.000162688
0.000109931
6.89535e-05
3.75342e-05
1.38506e-05
-3.76498e-06
-1.65548e-05
-2.54698e-05
-3.13068e-05
-3.47339e-05
-3.63065e-05
-3.64821e-05
-3.56338e-05
-3.4062e-05
-3.20057e-05
-2.96523e-05
-2.71463e-05
-2.45971e-05
-2.20853e-05
-1.96686e-05
-1.7386e-05
-1.52624e-05
-1.33116e-05
-1.15386e-05
-9.94258e-06
-8.51786e-06
-7.2558e-06
-6.14572e-06
-5.17574e-06
-4.33347e-06
-3.60648e-06
-2.98262e-06
-2.45033e-06
-1.99875e-06
-1.6178e-06
-1.29832e-06
-1.03197e-06
-8.11292e-07
-6.29652e-07
-4.81184e-07
-3.60747e-07
-2.63858e-07
-1.86636e-07
-1.25741e-07
-7.83053e-08
-4.19301e-08
-1.45102e-08
5.50705e-09
1.96397e-08
2.91999e-08
3.52434e-08
3.86139e-08
3.99811e-08
3.98768e-08
3.87122e-08
3.68325e-08
3.44062e-08
3.19089e-08
2.83036e-08
2.76024e-08
1.35156e-08
3.88614e-08
-1.19647e-07
2.51817e-07
-1.89157e-06
3.03682e-06
-2.59296e-05
3.68605e-05
-0.000345136
0.000398292
-0.0043912
0.00284662
-0.0516343
-0.0516343
-0.00195405
0.00195405
0.00490746
0.00691943
0.00813032
0.00869008
0.00874623
0.00843553
0.00787796
0.00717309
0.00639888
0.0056127
0.0048539
0.00414726
0.0035064
0.00293694
0.00243901
0.0020093
0.00164248
0.00133225
0.001072
0.000855281
0.000676042
0.000528773
0.000408558
0.00031108
0.000232592
0.000169874
0.000120179
8.11792e-05
5.09128e-05
2.77353e-05
1.02718e-05
-2.65278e-06
-1.19817e-05
-1.84618e-05
-2.27014e-05
-2.51982e-05
-2.63583e-05
-2.65121e-05
-2.59269e-05
-2.48171e-05
-2.33534e-05
-2.16699e-05
-1.98703e-05
-1.80336e-05
-1.62186e-05
-1.44674e-05
-1.28092e-05
-1.12628e-05
-9.83895e-06
-8.54219e-06
-7.3724e-06
-6.32615e-06
-5.39759e-06
-4.57936e-06
-3.86314e-06
-3.24013e-06
-2.70148e-06
-2.23847e-06
-1.84275e-06
-1.50645e-06
-1.22228e-06
-9.8353e-07
-7.84128e-07
-6.18607e-07
-4.82092e-07
-3.7027e-07
-2.79348e-07
-2.06017e-07
-1.47403e-07
-1.0103e-07
-6.47715e-08
-3.68245e-08
-1.56591e-08
5.85135e-12
1.1225e-08
1.89404e-08
2.39318e-08
2.68357e-08
2.81653e-08
2.83315e-08
2.76549e-08
2.64042e-08
2.4715e-08
2.29557e-08
2.0346e-08
2.00797e-08
9.60843e-09
3.17652e-08
-8.56011e-08
2.31883e-07
-1.31806e-06
2.77318e-06
-1.73788e-05
3.22954e-05
-0.000218921
0.000330258
-0.00260555
0.00238736
-0.0290026
-0.0290026
-3.13964e-10
3.15392e-10
7.67551e-10
1.05768e-09
1.20124e-09
1.20969e-09
1.09591e-09
8.78745e-10
5.85168e-10
2.49766e-10
-8.78556e-11
-3.87131e-10
-6.11255e-10
-7.3177e-10
-7.32198e-10
-6.10057e-10
-3.76876e-10
-5.62285e-11
3.19832e-10
7.15249e-10
1.09457e-09
1.42696e-09
1.68909e-09
1.86661e-09
1.95434e-09
1.95532e-09
1.87913e-09
1.73998e-09
1.55464e-09
1.34121e-09
1.117e-09
8.99071e-10
7.03071e-10
5.34445e-10
4.10654e-10
3.41024e-10
3.30827e-10
3.80501e-10
4.85453e-10
6.36303e-10
8.19624e-10
1.01914e-09
1.21733e-09
1.39712e-09
1.54358e-09
1.64527e-09
1.69521e-09
1.69114e-09
1.63544e-09
1.53434e-09
1.39698e-09
1.23416e-09
1.05716e-09
8.76608e-10
7.01679e-10
5.39513e-10
3.94969e-10
2.7064e-10
1.67087e-10
8.32129e-11
1.67082e-11
-3.54922e-11
-7.67936e-11
-1.10595e-10
-1.40026e-10
-1.67775e-10
-1.95991e-10
-2.26256e-10
-2.59608e-10
-2.96608e-10
-3.37368e-10
-3.81853e-10
-4.29379e-10
-4.79531e-10
-5.35194e-10
-5.94281e-10
-6.51054e-10
-7.04456e-10
-7.53849e-10
-7.99097e-10
-8.40627e-10
-8.79446e-10
-9.17055e-10
-9.5539e-10
-9.96466e-10
-1.04257e-09
-1.09567e-09
-1.15625e-09
-1.23301e-09
-1.29784e-09
-1.39033e-09
-1.48006e-09
-1.5988e-09
-1.71834e-09
-1.86934e-09
-2.0177e-09
-2.20605e-09
-2.36078e-09
-2.71039e-09
-2.51454e-09
-4.3364e-09
-4.33384e-09
0.00195405
-0.00195405
-0.00490745
-0.00691943
-0.00813032
-0.00869008
-0.00874623
-0.00843552
-0.00787796
-0.00717309
-0.00639888
-0.0056127
-0.0048539
-0.00414726
-0.00350641
-0.00293694
-0.00243901
-0.0020093
-0.00164248
-0.00133225
-0.001072
-0.000855278
-0.000676039
-0.000528769
-0.000408554
-0.000311076
-0.000232589
-0.000169871
-0.000120176
-8.11766e-05
-5.09107e-05
-2.77336e-05
-1.02704e-05
2.65388e-06
1.19826e-05
1.84626e-05
2.27022e-05
2.51991e-05
2.63594e-05
2.65135e-05
2.59286e-05
2.48192e-05
2.33559e-05
2.16726e-05
1.98733e-05
1.80368e-05
1.62218e-05
1.44705e-05
1.28122e-05
1.12657e-05
9.84154e-06
8.54447e-06
7.37435e-06
6.32776e-06
5.39888e-06
4.58036e-06
3.86387e-06
3.24064e-06
2.70179e-06
2.23862e-06
1.84278e-06
1.50639e-06
1.22213e-06
9.83316e-07
7.83853e-07
6.18272e-07
4.81695e-07
3.69807e-07
2.78813e-07
2.05403e-07
1.46704e-07
1.00238e-07
6.38814e-08
3.58328e-08
1.45528e-08
-1.22811e-09
-1.25624e-08
-2.03879e-08
-2.54817e-08
-2.84793e-08
-2.98947e-08
-3.0141e-08
-2.95421e-08
-2.83702e-08
-2.67653e-08
-2.50998e-08
-2.25972e-08
-2.24527e-08
-1.2129e-08
-3.44287e-08
8.27744e-08
-2.34898e-07
1.31484e-06
-2.77665e-06
1.73751e-05
-3.22995e-05
0.000218917
-0.000330263
0.00260554
-0.00238736
0.0290026
0.0290026
0.00401801
-0.00401801
-0.00987185
-0.0135457
-0.0153924
-0.0158461
-0.0153379
-0.0142366
-0.0128244
-0.0112996
-0.00979083
-0.00837399
-0.00708835
-0.00594912
-0.00495668
-0.00410299
-0.00337575
-0.002761
-0.00224467
-0.00181341
-0.00145504
-0.00115869
-0.000914795
-0.00071508
-0.000552399
-0.000420642
-0.000314602
-0.000229861
-0.000162685
-0.000109928
-6.89516e-05
-3.75325e-05
-1.38492e-05
3.76621e-06
1.65559e-05
2.54708e-05
3.13079e-05
3.47351e-05
3.63078e-05
3.64837e-05
3.56357e-05
3.40641e-05
3.2008e-05
2.96548e-05
2.7149e-05
2.45999e-05
2.20881e-05
1.96712e-05
1.73885e-05
1.52648e-05
1.33137e-05
1.15404e-05
9.94412e-06
8.51913e-06
7.25683e-06
6.14651e-06
5.17633e-06
4.33388e-06
3.60674e-06
2.98276e-06
2.45037e-06
1.99869e-06
1.61766e-06
1.2981e-06
1.03168e-06
8.10933e-07
6.29218e-07
4.80671e-07
3.60149e-07
2.6317e-07
1.85852e-07
1.24857e-07
7.73162e-08
4.08368e-08
1.32986e-08
-6.8338e-09
-2.10871e-08
-3.07639e-08
-3.69155e-08
-4.03845e-08
-4.18421e-08
-4.18226e-08
-4.07407e-08
-3.89453e-08
-3.66083e-08
-3.42083e-08
-3.07118e-08
-3.01303e-08
-1.61811e-08
-4.16851e-08
1.16702e-07
-2.54947e-07
1.88829e-06
-3.04035e-06
2.59259e-05
-3.68645e-05
0.000345132
-0.000398297
0.00439119
-0.00284663
0.0516343
0.0516343
0.00621567
-0.00621567
-0.0142999
-0.0183624
-0.0194157
-0.0185586
-0.0167091
-0.0144992
-0.0122985
-0.0102885
-0.00853603
-0.00704673
-0.00579863
-0.00476022
-0.00389924
-0.00318648
-0.00259682
-0.00210924
-0.00170635
-0.00137381
-0.00109978
-0.000874464
-0.000689739
-0.000538825
-0.000416053
-0.000316673
-0.000236694
-0.000172763
-0.000122065
-8.22307e-05
-5.12808e-05
-2.75354e-05
-9.64998e-06
3.77266e-06
1.35618e-05
2.03708e-05
2.47884e-05
2.73287e-05
2.84278e-05
2.8448e-05
2.76844e-05
2.6374e-05
2.47039e-05
2.28199e-05
2.0833e-05
1.88267e-05
1.68614e-05
1.49799e-05
1.32104e-05
1.15706e-05
1.00693e-05
8.70924e-06
7.48844e-06
6.40166e-06
5.44144e-06
4.59891e-06
3.86444e-06
3.22812e-06
2.68011e-06
2.21088e-06
1.81139e-06
1.47319e-06
1.18853e-06
9.5033e-07
7.522e-07
5.88439e-07
4.53985e-07
3.4438e-07
2.55725e-07
1.84629e-07
1.28164e-07
8.38158e-08
4.94335e-08
2.3214e-08
3.65095e-09
-1.03614e-08
-2.01254e-08
-2.66302e-08
-3.06471e-08
-3.27816e-08
-3.35105e-08
-3.32119e-08
-3.21752e-08
-3.06546e-08
-2.87397e-08
-2.68508e-08
-2.39214e-08
-2.35433e-08
-1.07374e-08
-2.88159e-08
1.16628e-07
-1.279e-07
1.81277e-06
-1.25349e-06
2.50761e-05
-1.342e-05
0.000347827
-0.000140676
0.00482119
-0.000857423
0.061277
0.061277
0.00751344
-0.00751344
-0.0146552
-0.0162812
-0.0149618
-0.0125487
-0.0100747
-0.0079588
-0.00628243
-0.00499021
-0.00399567
-0.00322205
-0.00261164
-0.00212353
-0.00172905
-0.00140773
-0.00114463
-0.000928457
-0.000750533
-0.00060401
-0.000483414
-0.000384308
-0.00030306
-0.000236668
-0.000182639
-0.000138888
-0.000103667
-7.55078e-05
-5.31751e-05
-3.56304e-05
-2.20038e-05
-1.15527e-05
-3.68601e-06
2.31797e-06
6.66931e-06
9.65209e-06
1.15454e-05
1.25936e-05
1.30008e-05
1.29338e-05
1.25267e-05
1.18859e-05
1.10945e-05
1.02169e-05
9.30164e-06
8.38466e-06
7.49194e-06
6.64145e-06
5.84496e-06
5.10941e-06
4.4381e-06
3.83163e-06
3.28863e-06
2.80637e-06
2.38118e-06
2.00887e-06
1.68494e-06
1.40482e-06
1.16402e-06
9.5819e-07
7.83263e-07
6.35441e-07
5.11239e-07
4.07498e-07
3.21374e-07
2.50331e-07
1.92125e-07
1.44785e-07
1.06588e-07
7.60406e-08
5.18556e-08
3.29285e-08
1.83227e-08
7.23061e-09
-8.41152e-10
-6.58117e-09
-1.05653e-08
-1.31994e-08
-1.47987e-08
-1.56124e-08
-1.58383e-08
-1.56348e-08
-1.51221e-08
-1.44108e-08
-1.35228e-08
-1.26707e-08
-1.12033e-08
-1.10074e-08
-3.27857e-09
-9.51196e-09
8.37461e-08
7.82602e-09
1.25712e-06
4.76442e-07
1.73449e-05
1.0244e-05
0.000240809
0.000168707
0.00349307
0.00153827
0.0477942
0.0477942
0
0
0
0
0
0
0
0
0
0
0
0
0
0
0
0
0
0
0
0
0
0
0
0
0
0
0
0
0
0
0
0
0
0
0
0
0
0
0
0
0
0
0
0
0
0
0
0
0
0
0
0
0
0
0
0
0
0
0
0
0
0
0
0
0
0
0
0
0
0
0
0
0
0
0
0
0
0
0
0
0
0
0
0
0
0
0
0
0
0
0
0
0
0
0
0
0
0
0
0
0
0
0
0
0
0
0
0
0
0
0
0
0
0
0
0
0
0
0
0
0
0
0
0
0
0
0
0
0
0
0
0
0
0
0
0
0
0
0
0
0
0
0
0
0
0
0
0
0
0
0
0
0
0
0
0
0
0
0
0
0
0
0
0
0
0
0
0
0
0
0
0
0
0
0
0
0
0
0
0
0
0
0
0
0
0
0
0
0
0
0
0
0
0
0
0
0
0
0
0
0
0
0
0
