# vtk DataFile Version 2.0
FlowField
ASCII
DATASET STRUCTURED_GRID
DIMENSIONS 102 1 12 
POINTS 1224 double
0 0 0
0.4 0 0
0.8 0 0
1.2 0 0
1.6 0 0
2 0 0
2.4 0 0
2.8 0 0
3.2 0 0
3.6 0 0
4 0 0
4.4 0 0
4.8 0 0
5.2 0 0
5.6 0 0
6 0 0
6.4 0 0
6.8 0 0
7.2 0 0
7.6 0 0
8 0 0
8.4 0 0
8.8 0 0
9.2 0 0
9.6 0 0
10 0 0
10.4 0 0
10.8 0 0
11.2 0 0
11.6 0 0
12 0 0
12.4 0 0
12.8 0 0
13.2 0 0
13.6 0 0
14 0 0
14.4 0 0
14.8 0 0
15.2 0 0
15.6 0 0
16 0 0
16.4 0 0
16.8 0 0
17.2 0 0
17.6 0 0
18 0 0
18.4 0 0
18.8 0 0
19.2 0 0
19.6 0 0
20 0 0
20.4 0 0
20.8 0 0
21.2 0 0
21.6 0 0
22 0 0
22.4 0 0
22.8 0 0
23.2 0 0
23.6 0 0
24 0 0
24.4 0 0
24.8 0 0
25.2 0 0
25.6 0 0
26 0 0
26.4 0 0
26.8 0 0
27.2 0 0
27.6 0 0
28 0 0
28.4 0 0
28.8 0 0
29.2 0 0
29.6 0 0
30 0 0
30.4 0 0
30.8 0 0
31.2 0 0
31.6 0 0
32 0 0
32.4 0 0
32.8 0 0
33.2 0 0
33.6 0 0
34 0 0
34.4 0 0
34.8 0 0
35.2 0 0
35.6 0 0
36 0 0
36.4 0 0
36.8 0 0
37.2 0 0
37.6 0 0
38 0 0
38.4 0 0
38.8 0 0
39.2 0 0
39.6 0 0
40 0 0
40.4 0 0
0 0.1 0
0.4 0.1 0
0.8 0.1 0
1.2 0.1 0
1.6 0.1 0
2 0.1 0
2.4 0.1 0
2.8 0.1 0
3.2 0.1 0
3.6 0.1 0
4 0.1 0
4.4 0.1 0
4.8 0.1 0
5.2 0.1 0
5.6 0.1 0
6 0.1 0
6.4 0.1 0
6.8 0.1 0
7.2 0.1 0
7.6 0.1 0
8 0.1 0
8.4 0.1 0
8.8 0.1 0
9.2 0.1 0
9.6 0.1 0
10 0.1 0
10.4 0.1 0
10.8 0.1 0
11.2 0.1 0
11.6 0.1 0
12 0.1 0
12.4 0.1 0
12.8 0.1 0
13.2 0.1 0
13.6 0.1 0
14 0.1 0
14.4 0.1 0
14.8 0.1 0
15.2 0.1 0
15.6 0.1 0
16 0.1 0
16.4 0.1 0
16.8 0.1 0
17.2 0.1 0
17.6 0.1 0
18 0.1 0
18.4 0.1 0
18.8 0.1 0
19.2 0.1 0
19.6 0.1 0
20 0.1 0
20.4 0.1 0
20.8 0.1 0
21.2 0.1 0
21.6 0.1 0
22 0.1 0
22.4 0.1 0
22.8 0.1 0
23.2 0.1 0
23.6 0.1 0
24 0.1 0
24.4 0.1 0
24.8 0.1 0
25.2 0.1 0
25.6 0.1 0
26 0.1 0
26.4 0.1 0
26.8 0.1 0
27.2 0.1 0
27.6 0.1 0
28 0.1 0
28.4 0.1 0
28.8 0.1 0
29.2 0.1 0
29.6 0.1 0
30 0.1 0
30.4 0.1 0
30.8 0.1 0
31.2 0.1 0
31.6 0.1 0
32 0.1 0
32.4 0.1 0
32.8 0.1 0
33.2 0.1 0
33.6 0.1 0
34 0.1 0
34.4 0.1 0
34.8 0.1 0
35.2 0.1 0
35.6 0.1 0
36 0.1 0
36.4 0.1 0
36.8 0.1 0
37.2 0.1 0
37.6 0.1 0
38 0.1 0
38.4 0.1 0
38.8 0.1 0
39.2 0.1 0
39.6 0.1 0
40 0.1 0
40.4 0.1 0
0 0.2 0
0.4 0.2 0
0.8 0.2 0
1.2 0.2 0
1.6 0.2 0
2 0.2 0
2.4 0.2 0
2.8 0.2 0
3.2 0.2 0
3.6 0.2 0
4 0.2 0
4.4 0.2 0
4.8 0.2 0
5.2 0.2 0
5.6 0.2 0
6 0.2 0
6.4 0.2 0
6.8 0.2 0
7.2 0.2 0
7.6 0.2 0
8 0.2 0
8.4 0.2 0
8.8 0.2 0
9.2 0.2 0
9.6 0.2 0
10 0.2 0
10.4 0.2 0
10.8 0.2 0
11.2 0.2 0
11.6 0.2 0
12 0.2 0
12.4 0.2 0
12.8 0.2 0
13.2 0.2 0
13.6 0.2 0
14 0.2 0
14.4 0.2 0
14.8 0.2 0
15.2 0.2 0
15.6 0.2 0
16 0.2 0
16.4 0.2 0
16.8 0.2 0
17.2 0.2 0
17.6 0.2 0
18 0.2 0
18.4 0.2 0
18.8 0.2 0
19.2 0.2 0
19.6 0.2 0
20 0.2 0
20.4 0.2 0
20.8 0.2 0
21.2 0.2 0
21.6 0.2 0
22 0.2 0
22.4 0.2 0
22.8 0.2 0
23.2 0.2 0
23.6 0.2 0
24 0.2 0
24.4 0.2 0
24.8 0.2 0
25.2 0.2 0
25.6 0.2 0
26 0.2 0
26.4 0.2 0
26.8 0.2 0
27.2 0.2 0
27.6 0.2 0
28 0.2 0
28.4 0.2 0
28.8 0.2 0
29.2 0.2 0
29.6 0.2 0
30 0.2 0
30.4 0.2 0
30.8 0.2 0
31.2 0.2 0
31.6 0.2 0
32 0.2 0
32.4 0.2 0
32.8 0.2 0
33.2 0.2 0
33.6 0.2 0
34 0.2 0
34.4 0.2 0
34.8 0.2 0
35.2 0.2 0
35.6 0.2 0
36 0.2 0
36.4 0.2 0
36.8 0.2 0
37.2 0.2 0
37.6 0.2 0
38 0.2 0
38.4 0.2 0
38.8 0.2 0
39.2 0.2 0
39.6 0.2 0
40 0.2 0
40.4 0.2 0
0 0.3 0
0.4 0.3 0
0.8 0.3 0
1.2 0.3 0
1.6 0.3 0
2 0.3 0
2.4 0.3 0
2.8 0.3 0
3.2 0.3 0
3.6 0.3 0
4 0.3 0
4.4 0.3 0
4.8 0.3 0
5.2 0.3 0
5.6 0.3 0
6 0.3 0
6.4 0.3 0
6.8 0.3 0
7.2 0.3 0
7.6 0.3 0
8 0.3 0
8.4 0.3 0
8.8 0.3 0
9.2 0.3 0
9.6 0.3 0
10 0.3 0
10.4 0.3 0
10.8 0.3 0
11.2 0.3 0
11.6 0.3 0
12 0.3 0
12.4 0.3 0
12.8 0.3 0
13.2 0.3 0
13.6 0.3 0
14 0.3 0
14.4 0.3 0
14.8 0.3 0
15.2 0.3 0
15.6 0.3 0
16 0.3 0
16.4 0.3 0
16.8 0.3 0
17.2 0.3 0
17.6 0.3 0
18 0.3 0
18.4 0.3 0
18.8 0.3 0
19.2 0.3 0
19.6 0.3 0
20 0.3 0
20.4 0.3 0
20.8 0.3 0
21.2 0.3 0
21.6 0.3 0
22 0.3 0
22.4 0.3 0
22.8 0.3 0
23.2 0.3 0
23.6 0.3 0
24 0.3 0
24.4 0.3 0
24.8 0.3 0
25.2 0.3 0
25.6 0.3 0
26 0.3 0
26.4 0.3 0
26.8 0.3 0
27.2 0.3 0
27.6 0.3 0
28 0.3 0
28.4 0.3 0
28.8 0.3 0
29.2 0.3 0
29.6 0.3 0
30 0.3 0
30.4 0.3 0
30.8 0.3 0
31.2 0.3 0
31.6 0.3 0
32 0.3 0
32.4 0.3 0
32.8 0.3 0
33.2 0.3 0
33.6 0.3 0
34 0.3 0
34.4 0.3 0
34.8 0.3 0
35.2 0.3 0
35.6 0.3 0
36 0.3 0
36.4 0.3 0
36.8 0.3 0
37.2 0.3 0
37.6 0.3 0
38 0.3 0
38.4 0.3 0
38.8 0.3 0
39.2 0.3 0
39.6 0.3 0
40 0.3 0
40.4 0.3 0
0 0.4 0
0.4 0.4 0
0.8 0.4 0
1.2 0.4 0
1.6 0.4 0
2 0.4 0
2.4 0.4 0
2.8 0.4 0
3.2 0.4 0
3.6 0.4 0
4 0.4 0
4.4 0.4 0
4.8 0.4 0
5.2 0.4 0
5.6 0.4 0
6 0.4 0
6.4 0.4 0
6.8 0.4 0
7.2 0.4 0
7.6 0.4 0
8 0.4 0
8.4 0.4 0
8.8 0.4 0
9.2 0.4 0
9.6 0.4 0
10 0.4 0
10.4 0.4 0
10.8 0.4 0
11.2 0.4 0
11.6 0.4 0
12 0.4 0
12.4 0.4 0
12.8 0.4 0
13.2 0.4 0
13.6 0.4 0
14 0.4 0
14.4 0.4 0
14.8 0.4 0
15.2 0.4 0
15.6 0.4 0
16 0.4 0
16.4 0.4 0
16.8 0.4 0
17.2 0.4 0
17.6 0.4 0
18 0.4 0
18.4 0.4 0
18.8 0.4 0
19.2 0.4 0
19.6 0.4 0
20 0.4 0
20.4 0.4 0
20.8 0.4 0
21.2 0.4 0
21.6 0.4 0
22 0.4 0
22.4 0.4 0
22.8 0.4 0
23.2 0.4 0
23.6 0.4 0
24 0.4 0
24.4 0.4 0
24.8 0.4 0
25.2 0.4 0
25.6 0.4 0
26 0.4 0
26.4 0.4 0
26.8 0.4 0
27.2 0.4 0
27.6 0.4 0
28 0.4 0
28.4 0.4 0
28.8 0.4 0
29.2 0.4 0
29.6 0.4 0
30 0.4 0
30.4 0.4 0
30.8 0.4 0
31.2 0.4 0
31.6 0.4 0
32 0.4 0
32.4 0.4 0
32.8 0.4 0
33.2 0.4 0
33.6 0.4 0
34 0.4 0
34.4 0.4 0
34.8 0.4 0
35.2 0.4 0
35.6 0.4 0
36 0.4 0
36.4 0.4 0
36.8 0.4 0
37.2 0.4 0
37.6 0.4 0
38 0.4 0
38.4 0.4 0
38.8 0.4 0
39.2 0.4 0
39.6 0.4 0
40 0.4 0
40.4 0.4 0
0 0.5 0
0.4 0.5 0
0.8 0.5 0
1.2 0.5 0
1.6 0.5 0
2 0.5 0
2.4 0.5 0
2.8 0.5 0
3.2 0.5 0
3.6 0.5 0
4 0.5 0
4.4 0.5 0
4.8 0.5 0
5.2 0.5 0
5.6 0.5 0
6 0.5 0
6.4 0.5 0
6.8 0.5 0
7.2 0.5 0
7.6 0.5 0
8 0.5 0
8.4 0.5 0
8.8 0.5 0
9.2 0.5 0
9.6 0.5 0
10 0.5 0
10.4 0.5 0
10.8 0.5 0
11.2 0.5 0
11.6 0.5 0
12 0.5 0
12.4 0.5 0
12.8 0.5 0
13.2 0.5 0
13.6 0.5 0
14 0.5 0
14.4 0.5 0
14.8 0.5 0
15.2 0.5 0
15.6 0.5 0
16 0.5 0
16.4 0.5 0
16.8 0.5 0
17.2 0.5 0
17.6 0.5 0
18 0.5 0
18.4 0.5 0
18.8 0.5 0
19.2 0.5 0
19.6 0.5 0
20 0.5 0
20.4 0.5 0
20.8 0.5 0
21.2 0.5 0
21.6 0.5 0
22 0.5 0
22.4 0.5 0
22.8 0.5 0
23.2 0.5 0
23.6 0.5 0
24 0.5 0
24.4 0.5 0
24.8 0.5 0
25.2 0.5 0
25.6 0.5 0
26 0.5 0
26.4 0.5 0
26.8 0.5 0
27.2 0.5 0
27.6 0.5 0
28 0.5 0
28.4 0.5 0
28.8 0.5 0
29.2 0.5 0
29.6 0.5 0
30 0.5 0
30.4 0.5 0
30.8 0.5 0
31.2 0.5 0
31.6 0.5 0
32 0.5 0
32.4 0.5 0
32.8 0.5 0
33.2 0.5 0
33.6 0.5 0
34 0.5 0
34.4 0.5 0
34.8 0.5 0
35.2 0.5 0
35.6 0.5 0
36 0.5 0
36.4 0.5 0
36.8 0.5 0
37.2 0.5 0
37.6 0.5 0
38 0.5 0
38.4 0.5 0
38.8 0.5 0
39.2 0.5 0
39.6 0.5 0
40 0.5 0
40.4 0.5 0
0 0.6 0
0.4 0.6 0
0.8 0.6 0
1.2 0.6 0
1.6 0.6 0
2 0.6 0
2.4 0.6 0
2.8 0.6 0
3.2 0.6 0
3.6 0.6 0
4 0.6 0
4.4 0.6 0
4.8 0.6 0
5.2 0.6 0
5.6 0.6 0
6 0.6 0
6.4 0.6 0
6.8 0.6 0
7.2 0.6 0
7.6 0.6 0
8 0.6 0
8.4 0.6 0
8.8 0.6 0
9.2 0.6 0
9.6 0.6 0
10 0.6 0
10.4 0.6 0
10.8 0.6 0
11.2 0.6 0
11.6 0.6 0
12 0.6 0
12.4 0.6 0
12.8 0.6 0
13.2 0.6 0
13.6 0.6 0
14 0.6 0
14.4 0.6 0
14.8 0.6 0
15.2 0.6 0
15.6 0.6 0
16 0.6 0
16.4 0.6 0
16.8 0.6 0
17.2 0.6 0
17.6 0.6 0
18 0.6 0
18.4 0.6 0
18.8 0.6 0
19.2 0.6 0
19.6 0.6 0
20 0.6 0
20.4 0.6 0
20.8 0.6 0
21.2 0.6 0
21.6 0.6 0
22 0.6 0
22.4 0.6 0
22.8 0.6 0
23.2 0.6 0
23.6 0.6 0
24 0.6 0
24.4 0.6 0
24.8 0.6 0
25.2 0.6 0
25.6 0.6 0
26 0.6 0
26.4 0.6 0
26.8 0.6 0
27.2 0.6 0
27.6 0.6 0
28 0.6 0
28.4 0.6 0
28.8 0.6 0
29.2 0.6 0
29.6 0.6 0
30 0.6 0
30.4 0.6 0
30.8 0.6 0
31.2 0.6 0
31.6 0.6 0
32 0.6 0
32.4 0.6 0
32.8 0.6 0
33.2 0.6 0
33.6 0.6 0
34 0.6 0
34.4 0.6 0
34.8 0.6 0
35.2 0.6 0
35.6 0.6 0
36 0.6 0
36.4 0.6 0
36.8 0.6 0
37.2 0.6 0
37.6 0.6 0
38 0.6 0
38.4 0.6 0
38.8 0.6 0
39.2 0.6 0
39.6 0.6 0
40 0.6 0
40.4 0.6 0
0 0.7 0
0.4 0.7 0
0.8 0.7 0
1.2 0.7 0
1.6 0.7 0
2 0.7 0
2.4 0.7 0
2.8 0.7 0
3.2 0.7 0
3.6 0.7 0
4 0.7 0
4.4 0.7 0
4.8 0.7 0
5.2 0.7 0
5.6 0.7 0
6 0.7 0
6.4 0.7 0
6.8 0.7 0
7.2 0.7 0
7.6 0.7 0
8 0.7 0
8.4 0.7 0
8.8 0.7 0
9.2 0.7 0
9.6 0.7 0
10 0.7 0
10.4 0.7 0
10.8 0.7 0
11.2 0.7 0
11.6 0.7 0
12 0.7 0
12.4 0.7 0
12.8 0.7 0
13.2 0.7 0
13.6 0.7 0
14 0.7 0
14.4 0.7 0
14.8 0.7 0
15.2 0.7 0
15.6 0.7 0
16 0.7 0
16.4 0.7 0
16.8 0.7 0
17.2 0.7 0
17.6 0.7 0
18 0.7 0
18.4 0.7 0
18.8 0.7 0
19.2 0.7 0
19.6 0.7 0
20 0.7 0
20.4 0.7 0
20.8 0.7 0
21.2 0.7 0
21.6 0.7 0
22 0.7 0
22.4 0.7 0
22.8 0.7 0
23.2 0.7 0
23.6 0.7 0
24 0.7 0
24.4 0.7 0
24.8 0.7 0
25.2 0.7 0
25.6 0.7 0
26 0.7 0
26.4 0.7 0
26.8 0.7 0
27.2 0.7 0
27.6 0.7 0
28 0.7 0
28.4 0.7 0
28.8 0.7 0
29.2 0.7 0
29.6 0.7 0
30 0.7 0
30.4 0.7 0
30.8 0.7 0
31.2 0.7 0
31.6 0.7 0
32 0.7 0
32.4 0.7 0
32.8 0.7 0
33.2 0.7 0
33.6 0.7 0
34 0.7 0
34.4 0.7 0
34.8 0.7 0
35.2 0.7 0
35.6 0.7 0
36 0.7 0
36.4 0.7 0
36.8 0.7 0
37.2 0.7 0
37.6 0.7 0
38 0.7 0
38.4 0.7 0
38.8 0.7 0
39.2 0.7 0
39.6 0.7 0
40 0.7 0
40.4 0.7 0
0 0.8 0
0.4 0.8 0
0.8 0.8 0
1.2 0.8 0
1.6 0.8 0
2 0.8 0
2.4 0.8 0
2.8 0.8 0
3.2 0.8 0
3.6 0.8 0
4 0.8 0
4.4 0.8 0
4.8 0.8 0
5.2 0.8 0
5.6 0.8 0
6 0.8 0
6.4 0.8 0
6.8 0.8 0
7.2 0.8 0
7.6 0.8 0
8 0.8 0
8.4 0.8 0
8.8 0.8 0
9.2 0.8 0
9.6 0.8 0
10 0.8 0
10.4 0.8 0
10.8 0.8 0
11.2 0.8 0
11.6 0.8 0
12 0.8 0
12.4 0.8 0
12.8 0.8 0
13.2 0.8 0
13.6 0.8 0
14 0.8 0
14.4 0.8 0
14.8 0.8 0
15.2 0.8 0
15.6 0.8 0
16 0.8 0
16.4 0.8 0
16.8 0.8 0
17.2 0.8 0
17.6 0.8 0
18 0.8 0
18.4 0.8 0
18.8 0.8 0
19.2 0.8 0
19.6 0.8 0
20 0.8 0
20.4 0.8 0
20.8 0.8 0
21.2 0.8 0
21.6 0.8 0
22 0.8 0
22.4 0.8 0
22.8 0.8 0
23.2 0.8 0
23.6 0.8 0
24 0.8 0
24.4 0.8 0
24.8 0.8 0
25.2 0.8 0
25.6 0.8 0
26 0.8 0
26.4 0.8 0
26.8 0.8 0
27.2 0.8 0
27.6 0.8 0
28 0.8 0
28.4 0.8 0
28.8 0.8 0
29.2 0.8 0
29.6 0.8 0
30 0.8 0
30.4 0.8 0
30.8 0.8 0
31.2 0.8 0
31.6 0.8 0
32 0.8 0
32.4 0.8 0
32.8 0.8 0
33.2 0.8 0
33.6 0.8 0
34 0.8 0
34.4 0.8 0
34.8 0.8 0
35.2 0.8 0
35.6 0.8 0
36 0.8 0
36.4 0.8 0
36.8 0.8 0
37.2 0.8 0
37.6 0.8 0
38 0.8 0
38.4 0.8 0
38.8 0.8 0
39.2 0.8 0
39.6 0.8 0
40 0.8 0
40.4 0.8 0
0 0.9 0
0.4 0.9 0
0.8 0.9 0
1.2 0.9 0
1.6 0.9 0
2 0.9 0
2.4 0.9 0
2.8 0.9 0
3.2 0.9 0
3.6 0.9 0
4 0.9 0
4.4 0.9 0
4.8 0.9 0
5.2 0.9 0
5.6 0.9 0
6 0.9 0
6.4 0.9 0
6.8 0.9 0
7.2 0.9 0
7.6 0.9 0
8 0.9 0
8.4 0.9 0
8.8 0.9 0
9.2 0.9 0
9.6 0.9 0
10 0.9 0
10.4 0.9 0
10.8 0.9 0
11.2 0.9 0
11.6 0.9 0
12 0.9 0
12.4 0.9 0
12.8 0.9 0
13.2 0.9 0
13.6 0.9 0
14 0.9 0
14.4 0.9 0
14.8 0.9 0
15.2 0.9 0
15.6 0.9 0
16 0.9 0
16.4 0.9 0
16.8 0.9 0
17.2 0.9 0
17.6 0.9 0
18 0.9 0
18.4 0.9 0
18.8 0.9 0
19.2 0.9 0
19.6 0.9 0
20 0.9 0
20.4 0.9 0
20.8 0.9 0
21.2 0.9 0
21.6 0.9 0
22 0.9 0
22.4 0.9 0
22.8 0.9 0
23.2 0.9 0
23.6 0.9 0
24 0.9 0
24.4 0.9 0
24.8 0.9 0
25.2 0.9 0
25.6 0.9 0
26 0.9 0
26.4 0.9 0
26.8 0.9 0
27.2 0.9 0
27.6 0.9 0
28 0.9 0
28.4 0.9 0
28.8 0.9 0
29.2 0.9 0
29.6 0.9 0
30 0.9 0
30.4 0.9 0
30.8 0.9 0
31.2 0.9 0
31.6 0.9 0
32 0.9 0
32.4 0.9 0
32.8 0.9 0
33.2 0.9 0
33.6 0.9 0
34 0.9 0
34.4 0.9 0
34.8 0.9 0
35.2 0.9 0
35.6 0.9 0
36 0.9 0
36.4 0.9 0
36.8 0.9 0
37.2 0.9 0
37.6 0.9 0
38 0.9 0
38.4 0.9 0
38.8 0.9 0
39.2 0.9 0
39.6 0.9 0
40 0.9 0
40.4 0.9 0
0 1 0
0.4 1 0
0.8 1 0
1.2 1 0
1.6 1 0
2 1 0
2.4 1 0
2.8 1 0
3.2 1 0
3.6 1 0
4 1 0
4.4 1 0
4.8 1 0
5.2 1 0
5.6 1 0
6 1 0
6.4 1 0
6.8 1 0
7.2 1 0
7.6 1 0
8 1 0
8.4 1 0
8.8 1 0
9.2 1 0
9.6 1 0
10 1 0
10.4 1 0
10.8 1 0
11.2 1 0
11.6 1 0
12 1 0
12.4 1 0
12.8 1 0
13.2 1 0
13.6 1 0
14 1 0
14.4 1 0
14.8 1 0
15.2 1 0
15.6 1 0
16 1 0
16.4 1 0
16.8 1 0
17.2 1 0
17.6 1 0
18 1 0
18.4 1 0
18.8 1 0
19.2 1 0
19.6 1 0
20 1 0
20.4 1 0
20.8 1 0
21.2 1 0
21.6 1 0
22 1 0
22.4 1 0
22.8 1 0
23.2 1 0
23.6 1 0
24 1 0
24.4 1 0
24.8 1 0
25.2 1 0
25.6 1 0
26 1 0
26.4 1 0
26.8 1 0
27.2 1 0
27.6 1 0
28 1 0
28.4 1 0
28.8 1 0
29.2 1 0
29.6 1 0
30 1 0
30.4 1 0
30.8 1 0
31.2 1 0
31.6 1 0
32 1 0
32.4 1 0
32.8 1 0
33.2 1 0
33.6 1 0
34 1 0
34.4 1 0
34.8 1 0
35.2 1 0
35.6 1 0
36 1 0
36.4 1 0
36.8 1 0
37.2 1 0
37.6 1 0
38 1 0
38.4 1 0
38.8 1 0
39.2 1 0
39.6 1 0
40 1 0
40.4 1 0
0 1.1 0
0.4 1.1 0
0.8 1.1 0
1.2 1.1 0
1.6 1.1 0
2 1.1 0
2.4 1.1 0
2.8 1.1 0
3.2 1.1 0
3.6 1.1 0
4 1.1 0
4.4 1.1 0
4.8 1.1 0
5.2 1.1 0
5.6 1.1 0
6 1.1 0
6.4 1.1 0
6.8 1.1 0
7.2 1.1 0
7.6 1.1 0
8 1.1 0
8.4 1.1 0
8.8 1.1 0
9.2 1.1 0
9.6 1.1 0
10 1.1 0
10.4 1.1 0
10.8 1.1 0
11.2 1.1 0
11.6 1.1 0
12 1.1 0
12.4 1.1 0
12.8 1.1 0
13.2 1.1 0
13.6 1.1 0
14 1.1 0
14.4 1.1 0
14.8 1.1 0
15.2 1.1 0
15.6 1.1 0
16 1.1 0
16.4 1.1 0
16.8 1.1 0
17.2 1.1 0
17.6 1.1 0
18 1.1 0
18.4 1.1 0
18.8 1.1 0
19.2 1.1 0
19.6 1.1 0
20 1.1 0
20.4 1.1 0
20.8 1.1 0
21.2 1.1 0
21.6 1.1 0
22 1.1 0
22.4 1.1 0
22.8 1.1 0
23.2 1.1 0
23.6 1.1 0
24 1.1 0
24.4 1.1 0
24.8 1.1 0
25.2 1.1 0
25.6 1.1 0
26 1.1 0
26.4 1.1 0
26.8 1.1 0
27.2 1.1 0
27.6 1.1 0
28 1.1 0
28.4 1.1 0
28.8 1.1 0
29.2 1.1 0
29.6 1.1 0
30 1.1 0
30.4 1.1 0
30.8 1.1 0
31.2 1.1 0
31.6 1.1 0
32 1.1 0
32.4 1.1 0
32.8 1.1 0
33.2 1.1 0
33.6 1.1 0
34 1.1 0
34.4 1.1 0
34.8 1.1 0
35.2 1.1 0
35.6 1.1 0
36 1.1 0
36.4 1.1 0
36.8 1.1 0
37.2 1.1 0
37.6 1.1 0
38 1.1 0
38.4 1.1 0
38.8 1.1 0
39.2 1.1 0
39.6 1.1 0
40 1.1 0
40.4 1.1 0

POINT_DATA 1224

SCALARS v double
LOOKUP_TABLE default
0
0
0
0
0
0
0
0
0
0
0
0
0
0
0
0
0
0
0
0
0
0
0
0
0
0
0
0
0
0
0
0
0
0
0
0
0
0
0
0
0
0
0
0
0
0
0
0
0
0
0
0
0
0
0
0
0
0
0
0
0
0
0
0
0
0
0
0
0
0
0
0
0
0
0
0
0
0
0
0
0
0
0
0
0
0
0
0
0
0
0
0
0
0
0
0
0
0
0
0
0
0
-0.00751344
0.00751344
0.0146552
0.0162812
0.0149618
0.0125487
0.0100747
0.00795881
0.00628244
0.00499022
0.00399568
0.00322207
0.00261165
0.00212354
0.00172906
0.00140774
0.00114464
0.000928469
0.000750546
0.000604023
0.000483427
0.000384321
0.000303073
0.000236682
0.000182653
0.000138902
0.000103681
7.55217e-05
5.31892e-05
3.56443e-05
2.20162e-05
1.15601e-05
3.68639e-06
-2.34754e-06
-6.7511e-06
-9.81343e-06
-1.18204e-05
-1.30217e-05
-1.36234e-05
-1.37889e-05
-1.36436e-05
-1.32795e-05
-1.27608e-05
-1.213e-05
-1.14136e-05
-1.06282e-05
-9.78534e-06
-8.89545e-06
-7.97089e-06
-7.02709e-06
-6.08258e-06
-5.15797e-06
-4.27428e-06
-3.45107e-06
-2.70465e-06
-2.04683e-06
-1.48423e-06
-1.01821e-06
-6.45487e-07
-3.59236e-07
-1.51116e-07
-9.70225e-09
8.26907e-08
1.37363e-07
1.63783e-07
1.70202e-07
1.63313e-07
1.48329e-07
1.29146e-07
1.08541e-07
8.83686e-08
6.97603e-08
5.33068e-08
3.92173e-08
2.74484e-08
1.7802e-08
9.99122e-09
3.66137e-09
-1.4159e-09
-5.3485e-09
-8.42872e-09
-1.08735e-08
-1.28285e-08
-1.44039e-08
-1.5747e-08
-1.68068e-08
-1.82817e-08
-1.85386e-08
-2.6175e-08
-1.98524e-08
-1.13034e-07
-3.69583e-08
-1.28499e-06
-5.06123e-07
-1.73652e-05
-1.02741e-05
-0.000240776
-0.000168639
-0.00349266
-0.00153649
-0.0477896
-0.0477896
-0.00621568
0.00621568
0.0142999
0.0183624
0.0194157
0.0185586
0.0167091
0.0144992
0.0122985
0.0102886
0.00853605
0.00704674
0.00579865
0.00476023
0.00389926
0.0031865
0.00259684
0.00210926
0.00170637
0.00137383
0.0010998
0.000874484
0.000689759
0.000538845
0.000416073
0.000316693
0.000236714
0.000172785
0.000122087
8.22526e-05
5.13022e-05
2.75525e-05
9.65896e-06
-3.79189e-06
-1.36402e-05
-2.05525e-05
-2.51326e-05
-2.7909e-05
-2.93286e-05
-2.97558e-05
-2.94782e-05
-2.87131e-05
-2.76161e-05
-2.6292e-05
-2.48056e-05
-2.31937e-05
-2.14768e-05
-1.96688e-05
-1.77849e-05
-1.58468e-05
-1.38841e-05
-1.1934e-05
-1.00385e-05
-8.24013e-06
-6.57792e-06
-5.08371e-06
-3.77949e-06
-2.67612e-06
-1.77365e-06
-1.06281e-06
-5.26991e-07
-1.46689e-07
1.05703e-07
2.61398e-07
3.44923e-07
3.76514e-07
3.72598e-07
3.46158e-07
3.07085e-07
2.62578e-07
2.17578e-07
1.75225e-07
1.37282e-07
1.04518e-07
7.70281e-08
5.44781e-08
3.62877e-08
2.18396e-08
1.0529e-08
1.61104e-09
-5.3748e-09
-1.0772e-08
-1.49308e-08
-1.81361e-08
-2.07152e-08
-2.26213e-08
-2.50746e-08
-2.49406e-08
-3.67968e-08
-1.81721e-08
-1.62592e-07
8.23801e-08
-1.85526e-06
1.20707e-06
-2.5104e-05
1.33587e-05
-0.000347753
0.000140562
-0.00482025
0.000857836
-0.0612676
-0.0612676
-0.00401801
0.00401801
0.00987185
0.0135457
0.0153924
0.0158461
0.015338
0.0142366
0.0128244
0.0112996
0.00979085
0.00837401
0.00708837
0.00594914
0.0049567
0.00410301
0.00337577
0.00276102
0.00224469
0.00181344
0.00145507
0.00115871
0.000914819
0.000715103
0.000552423
0.000420667
0.000314627
0.000229886
0.000162711
0.000109955
6.89783e-05
3.75579e-05
1.38697e-05
-3.76197e-06
-1.65898e-05
-2.55787e-05
-3.15431e-05
-3.51705e-05
-3.70344e-05
-3.76043e-05
-3.72556e-05
-3.62779e-05
-3.48844e-05
-3.32224e-05
-3.13849e-05
-2.94236e-05
-2.73628e-05
-2.52124e-05
-2.29791e-05
-2.06749e-05
-1.83224e-05
-1.59558e-05
-1.36192e-05
-1.13626e-05
-9.23638e-06
-7.28608e-06
-5.54774e-06
-4.04499e-06
-2.78767e-06
-1.77286e-06
-9.86358e-07
-4.05153e-07
-2.8982e-09
2.55471e-07
4.04446e-07
4.73289e-07
4.86182e-07
4.62494e-07
4.17174e-07
3.61258e-07
3.02473e-07
2.45862e-07
1.94393e-07
1.49514e-07
1.1162e-07
8.04237e-08
5.52518e-08
3.52979e-08
1.97113e-08
7.60755e-09
-1.83377e-09
-9.1271e-09
-1.47193e-08
-1.89894e-08
-2.23444e-08
-2.47997e-08
-2.76568e-08
-2.7409e-08
-3.99185e-08
-1.37142e-08
-1.69753e-07
2.01677e-07
-1.93618e-06
2.98379e-06
-2.59501e-05
3.67602e-05
-0.000344975
0.000397813
-0.00438964
0.00284409
-0.0516235
-0.0516234
-0.00195406
0.00195406
0.00490746
0.00691944
0.00813033
0.00869009
0.00874624
0.00843554
0.00787797
0.00717311
0.0063989
0.00561272
0.00485392
0.00414728
0.00350643
0.00293696
0.00243904
0.00200933
0.00164251
0.00133227
0.00107202
0.000855304
0.000676065
0.000528795
0.00040858
0.000311102
0.000232615
0.000169897
0.000120203
8.12043e-05
5.0939e-05
2.77623e-05
1.02977e-05
-2.63278e-06
-1.19778e-05
-1.84919e-05
-2.27943e-05
-2.53957e-05
-2.67158e-05
-2.70965e-05
-2.68116e-05
-2.60739e-05
-2.50429e-05
-2.38305e-05
-2.2509e-05
-2.1119e-05
-1.96784e-05
-1.81919e-05
-1.66589e-05
-1.50807e-05
-1.34652e-05
-1.18292e-05
-1.01982e-05
-8.60395e-06
-7.08148e-06
-5.66463e-06
-4.38257e-06
-3.25684e-06
-2.29974e-06
-1.51403e-06
-8.93937e-07
-4.25748e-07
-9.1717e-08
1.29644e-07
2.62565e-07
3.29336e-07
3.49129e-07
3.37651e-07
3.07202e-07
2.66964e-07
2.23425e-07
1.80863e-07
1.4184e-07
1.07646e-07
7.8689e-08
5.4805e-08
3.55054e-08
2.01863e-08
8.18098e-09
-1.20346e-09
-8.50545e-09
-1.41772e-08
-1.85909e-08
-2.20301e-08
-2.48002e-08
-2.68741e-08
-2.92945e-08
-2.90812e-08
-3.87897e-08
-1.60178e-08
-1.319e-07
1.85388e-07
-1.35998e-06
2.72267e-06
-1.73984e-05
3.21945e-05
-0.000218774
0.000329754
-0.00260423
0.00238446
-0.0289953
-0.0289953
-1.92046e-09
1.91917e-09
5.3766e-09
8.49225e-09
1.13249e-08
1.38947e-08
1.61955e-08
1.82107e-08
1.99282e-08
2.13464e-08
2.24766e-08
2.334e-08
2.39646e-08
2.43818e-08
2.4624e-08
2.47231e-08
2.47095e-08
2.46116e-08
2.44559e-08
2.42671e-08
2.40678e-08
2.38796e-08
2.37237e-08
2.36209e-08
2.35931e-08
2.36628e-08
2.38529e-08
2.41842e-08
2.46777e-08
2.5338e-08
2.61934e-08
2.71656e-08
2.84309e-08
2.9526e-08
3.05419e-08
3.13632e-08
3.18727e-08
3.1925e-08
3.13344e-08
2.98832e-08
2.73447e-08
2.35127e-08
1.82432e-08
1.1505e-08
3.43691e-09
-5.60785e-09
-1.50457e-08
-2.40921e-08
-3.1842e-08
-3.73954e-08
-4.00059e-08
-3.92247e-08
-3.50039e-08
-2.77368e-08
-1.82188e-08
-7.53743e-09
3.08993e-09
1.24963e-08
1.97284e-08
2.41709e-08
2.55835e-08
2.41518e-08
2.0343e-08
1.4729e-08
8.08253e-09
1.13225e-09
-5.51248e-09
-1.14032e-08
-1.62675e-08
-2.00003e-08
-2.26364e-08
-2.43123e-08
-2.52246e-08
-2.55923e-08
-2.56276e-08
-2.55177e-08
-2.5401e-08
-2.53597e-08
-2.54567e-08
-2.57128e-08
-2.61136e-08
-2.66476e-08
-2.72935e-08
-2.80227e-08
-2.88216e-08
-2.96499e-08
-3.0552e-08
-3.13737e-08
-3.23733e-08
-3.3002e-08
-3.38807e-08
-3.42918e-08
-3.48553e-08
-3.48663e-08
-3.477e-08
-3.39443e-08
-3.19438e-08
-2.99229e-08
-2.02713e-08
-2.04714e-08
2.8284e-08
2.82718e-08
0.00195405
-0.00195405
-0.00490745
-0.00691942
-0.00813031
-0.00869007
-0.00874621
-0.00843551
-0.00787794
-0.00717307
-0.00639886
-0.00561267
-0.00485388
-0.00414724
-0.00350638
-0.00293692
-0.00243899
-0.00200928
-0.00164246
-0.00133223
-0.00107198
-0.000855258
-0.000676019
-0.00052875
-0.000408535
-0.000311057
-0.000232569
-0.000169851
-0.000120156
-8.11554e-05
-5.08885e-05
-2.771e-05
-1.02431e-05
2.68968e-06
1.20367e-05
1.85523e-05
2.28555e-05
2.54567e-05
2.67754e-05
2.7153e-05
2.68628e-05
2.61175e-05
2.50762e-05
2.38509e-05
2.25142e-05
2.11075e-05
1.96498e-05
1.81473e-05
1.66009e-05
1.50137e-05
1.33948e-05
1.17615e-05
1.01393e-05
8.55921e-06
7.05449e-06
5.657e-06
4.39367e-06
3.28404e-06
2.33879e-06
1.55969e-06
9.40741e-07
4.68696e-07
1.26561e-07
-1.05711e-07
-2.51023e-07
-3.30459e-07
-3.62186e-07
-3.61177e-07
-3.39304e-07
-3.05605e-07
-2.66663e-07
-2.27027e-07
-1.89619e-07
-1.56125e-07
-1.27327e-07
-1.03388e-07
-8.40609e-08
-6.88703e-08
-5.72391e-08
-4.85518e-08
-4.22283e-08
-3.77698e-08
-3.47486e-08
-3.28291e-08
-3.16752e-08
-3.12751e-08
-3.06004e-08
-3.25406e-08
-2.45887e-08
-4.90214e-08
6.56167e-08
-2.52946e-07
1.29177e-06
-2.79138e-06
1.73302e-05
-3.22614e-05
0.000218711
-0.000329812
0.00260419
-0.00238449
0.0289954
0.0289953
0.00401801
-0.00401801
-0.00987184
-0.0135457
-0.0153924
-0.0158461
-0.0153379
-0.0142366
-0.0128243
-0.0112996
-0.00979081
-0.00837397
-0.00708833
-0.0059491
-0.00495666
-0.00410297
-0.00337573
-0.00276098
-0.00224465
-0.0018134
-0.00145503
-0.00115867
-0.000914779
-0.000715063
-0.000552383
-0.000420626
-0.000314586
-0.000229844
-0.000162668
-0.000109911
-6.89332e-05
-3.75112e-05
-1.38214e-05
3.81247e-06
1.6642e-05
2.56319e-05
3.15965e-05
3.52233e-05
3.70852e-05
3.76517e-05
3.72979e-05
3.63131e-05
3.49107e-05
3.32379e-05
3.13883e-05
2.94144e-05
2.73413e-05
2.51802e-05
2.29389e-05
2.06304e-05
1.8278e-05
1.5916e-05
1.3588e-05
1.1343e-05
9.23021e-06
7.29342e-06
5.56719e-06
4.0738e-06
2.82225e-06
1.80918e-06
1.02059e-06
4.339e-07
2.36595e-08
-2.43953e-07
-4.02657e-07
-4.80989e-07
-5.02525e-07
-4.8623e-07
-4.46854e-07
-3.95422e-07
-3.39797e-07
-2.85252e-07
-2.35035e-07
-1.90875e-07
-1.53423e-07
-1.22607e-07
-9.79117e-08
-7.85926e-08
-6.38177e-08
-5.27562e-08
-4.46537e-08
-3.88682e-08
-3.48573e-08
-3.22048e-08
-3.04831e-08
-2.97021e-08
-2.84867e-08
-3.05376e-08
-1.94867e-08
-4.77915e-08
1.07526e-07
-2.65662e-07
1.87197e-06
-3.04903e-06
2.58858e-05
-3.68237e-05
0.000344915
-0.000397867
0.00438959
-0.00284412
0.0516235
0.0516235
0.00621567
-0.00621567
-0.0142999
-0.0183624
-0.0194157
-0.0185586
-0.016709
-0.0144991
-0.0122985
-0.0102885
-0.00853602
-0.00704671
-0.00579862
-0.0047602
-0.00389923
-0.00318647
-0.00259681
-0.00210923
-0.00170634
-0.00137379
-0.00109976
-0.000874451
-0.000689727
-0.000538813
-0.000416041
-0.00031666
-0.000236681
-0.00017275
-0.000122052
-8.2217e-05
-5.12656e-05
-2.75148e-05
-9.62038e-06
3.8324e-06
1.36818e-05
2.05944e-05
2.5174e-05
2.79494e-05
2.93669e-05
2.97912e-05
2.95096e-05
2.87394e-05
2.76364e-05
2.63056e-05
2.4812e-05
2.31932e-05
2.14701e-05
1.96574e-05
1.77707e-05
1.58321e-05
1.38713e-05
1.19252e-05
1.00354e-05
8.24371e-06
6.58825e-06
5.10004e-06
3.80035e-06
2.69951e-06
1.79734e-06
1.08463e-06
5.45022e-07
1.59425e-07
-9.88013e-08
-2.60697e-07
-3.50361e-07
-3.87671e-07
-3.88805e-07
-3.66608e-07
-3.30942e-07
-2.89059e-07
-2.46022e-07
-2.0512e-07
-1.68278e-07
-1.36414e-07
-1.09751e-07
-8.80594e-08
-7.08495e-08
-5.75086e-08
-4.73929e-08
-3.98873e-08
-3.44484e-08
-3.06207e-08
-2.80194e-08
-2.63617e-08
-2.53171e-08
-2.49806e-08
-2.40379e-08
-2.58956e-08
-1.54249e-08
-3.60381e-08
1.06992e-07
-1.38988e-07
1.79746e-06
-1.26501e-06
2.50459e-05
-1.34154e-05
0.000347698
-0.00014061
0.00482021
-0.000857855
0.0612676
0.0612676
0.00751344
-0.00751344
-0.0146552
-0.0162812
-0.0149618
-0.0125487
-0.0100746
-0.00795879
-0.00628242
-0.0049902
-0.00399566
-0.00322204
-0.00261163
-0.00212352
-0.00172904
-0.00140772
-0.00114462
-0.000928448
-0.000750524
-0.000604001
-0.000483405
-0.000384299
-0.000303051
-0.00023666
-0.000182631
-0.00013888
-0.000103658
-7.54989e-05
-5.3166e-05
-3.56208e-05
-2.19923e-05
-1.15357e-05
-3.66164e-06
2.3738e-06
6.77761e-06
9.83965e-06
1.18461e-05
1.30466e-05
1.36471e-05
1.38112e-05
1.36641e-05
1.32978e-05
1.27767e-05
1.21434e-05
1.14246e-05
1.0637e-05
9.79235e-06
8.9013e-06
7.9763e-06
7.0328e-06
6.08925e-06
5.16609e-06
4.28411e-06
3.46256e-06
2.71746e-06
2.0604e-06
1.4978e-06
1.03097e-06
6.56618e-07
3.68038e-07
1.57056e-07
1.2652e-08
-8.27991e-08
-1.40586e-07
-1.69959e-07
-1.79058e-07
-1.74524e-07
-1.61555e-07
-1.44067e-07
-1.24881e-07
-1.05909e-07
-8.83478e-08
-7.28479e-08
-5.96719e-08
-4.88193e-08
-4.01263e-08
-3.33416e-08
-2.8179e-08
-2.43515e-08
-2.15952e-08
-1.96822e-08
-1.84237e-08
-1.76593e-08
-1.72766e-08
-1.71232e-08
-1.72779e-08
-1.69831e-08
-1.80683e-08
-1.15916e-08
-1.95329e-08
7.223e-08
-4.26376e-09
1.24275e-06
4.63671e-07
1.73223e-05
1.02318e-05
0.000240735
0.000168601
0.00349262
0.00153646
0.0477896
0.0477896
0
0
0
0
0
0
0
0
0
0
0
0
0
0
0
0
0
0
0
0
0
0
0
0
0
0
0
0
0
0
0
0
0
0
0
0
0
0
0
0
0
0
0
0
0
0
0
0
0
0
0
0
0
0
0
0
0
0
0
0
0
0
0
0
0
0
0
0
0
0
0
0
0
0
0
0
0
0
0
0
0
0
0
0
0
0
0
0
0
0
0
0
0
0
0
0
0
0
0
0
0
0
0
0
0
0
0
0
0
0
0
0
0
0
0
0
0
0
0
0
0
0
0
0
0
0
0
0
0
0
0
0
0
0
0
0
0
0
0
0
0
0
0
0
0
0
0
0
0
0
0
0
0
0
0
0
0
0
0
0
0
0
0
0
0
0
0
0
0
0
0
0
0
0
0
0
0
0
0
0
0
0
0
0
0
0
0
0
0
0
0
0
0
0
0
0
0
0
0
0
0
0
0
0
