# vtk DataFile Version 2.0
FlowField
ASCII
DATASET STRUCTURED_GRID
DIMENSIONS 102 1 12 
POINTS 1224 double
0 0 0
0.4 0 0
0.8 0 0
1.2 0 0
1.6 0 0
2 0 0
2.4 0 0
2.8 0 0
3.2 0 0
3.6 0 0
4 0 0
4.4 0 0
4.8 0 0
5.2 0 0
5.6 0 0
6 0 0
6.4 0 0
6.8 0 0
7.2 0 0
7.6 0 0
8 0 0
8.4 0 0
8.8 0 0
9.2 0 0
9.6 0 0
10 0 0
10.4 0 0
10.8 0 0
11.2 0 0
11.6 0 0
12 0 0
12.4 0 0
12.8 0 0
13.2 0 0
13.6 0 0
14 0 0
14.4 0 0
14.8 0 0
15.2 0 0
15.6 0 0
16 0 0
16.4 0 0
16.8 0 0
17.2 0 0
17.6 0 0
18 0 0
18.4 0 0
18.8 0 0
19.2 0 0
19.6 0 0
20 0 0
20.4 0 0
20.8 0 0
21.2 0 0
21.6 0 0
22 0 0
22.4 0 0
22.8 0 0
23.2 0 0
23.6 0 0
24 0 0
24.4 0 0
24.8 0 0
25.2 0 0
25.6 0 0
26 0 0
26.4 0 0
26.8 0 0
27.2 0 0
27.6 0 0
28 0 0
28.4 0 0
28.8 0 0
29.2 0 0
29.6 0 0
30 0 0
30.4 0 0
30.8 0 0
31.2 0 0
31.6 0 0
32 0 0
32.4 0 0
32.8 0 0
33.2 0 0
33.6 0 0
34 0 0
34.4 0 0
34.8 0 0
35.2 0 0
35.6 0 0
36 0 0
36.4 0 0
36.8 0 0
37.2 0 0
37.6 0 0
38 0 0
38.4 0 0
38.8 0 0
39.2 0 0
39.6 0 0
40 0 0
40.4 0 0
0 0.1 0
0.4 0.1 0
0.8 0.1 0
1.2 0.1 0
1.6 0.1 0
2 0.1 0
2.4 0.1 0
2.8 0.1 0
3.2 0.1 0
3.6 0.1 0
4 0.1 0
4.4 0.1 0
4.8 0.1 0
5.2 0.1 0
5.6 0.1 0
6 0.1 0
6.4 0.1 0
6.8 0.1 0
7.2 0.1 0
7.6 0.1 0
8 0.1 0
8.4 0.1 0
8.8 0.1 0
9.2 0.1 0
9.6 0.1 0
10 0.1 0
10.4 0.1 0
10.8 0.1 0
11.2 0.1 0
11.6 0.1 0
12 0.1 0
12.4 0.1 0
12.8 0.1 0
13.2 0.1 0
13.6 0.1 0
14 0.1 0
14.4 0.1 0
14.8 0.1 0
15.2 0.1 0
15.6 0.1 0
16 0.1 0
16.4 0.1 0
16.8 0.1 0
17.2 0.1 0
17.6 0.1 0
18 0.1 0
18.4 0.1 0
18.8 0.1 0
19.2 0.1 0
19.6 0.1 0
20 0.1 0
20.4 0.1 0
20.8 0.1 0
21.2 0.1 0
21.6 0.1 0
22 0.1 0
22.4 0.1 0
22.8 0.1 0
23.2 0.1 0
23.6 0.1 0
24 0.1 0
24.4 0.1 0
24.8 0.1 0
25.2 0.1 0
25.6 0.1 0
26 0.1 0
26.4 0.1 0
26.8 0.1 0
27.2 0.1 0
27.6 0.1 0
28 0.1 0
28.4 0.1 0
28.8 0.1 0
29.2 0.1 0
29.6 0.1 0
30 0.1 0
30.4 0.1 0
30.8 0.1 0
31.2 0.1 0
31.6 0.1 0
32 0.1 0
32.4 0.1 0
32.8 0.1 0
33.2 0.1 0
33.6 0.1 0
34 0.1 0
34.4 0.1 0
34.8 0.1 0
35.2 0.1 0
35.6 0.1 0
36 0.1 0
36.4 0.1 0
36.8 0.1 0
37.2 0.1 0
37.6 0.1 0
38 0.1 0
38.4 0.1 0
38.8 0.1 0
39.2 0.1 0
39.6 0.1 0
40 0.1 0
40.4 0.1 0
0 0.2 0
0.4 0.2 0
0.8 0.2 0
1.2 0.2 0
1.6 0.2 0
2 0.2 0
2.4 0.2 0
2.8 0.2 0
3.2 0.2 0
3.6 0.2 0
4 0.2 0
4.4 0.2 0
4.8 0.2 0
5.2 0.2 0
5.6 0.2 0
6 0.2 0
6.4 0.2 0
6.8 0.2 0
7.2 0.2 0
7.6 0.2 0
8 0.2 0
8.4 0.2 0
8.8 0.2 0
9.2 0.2 0
9.6 0.2 0
10 0.2 0
10.4 0.2 0
10.8 0.2 0
11.2 0.2 0
11.6 0.2 0
12 0.2 0
12.4 0.2 0
12.8 0.2 0
13.2 0.2 0
13.6 0.2 0
14 0.2 0
14.4 0.2 0
14.8 0.2 0
15.2 0.2 0
15.6 0.2 0
16 0.2 0
16.4 0.2 0
16.8 0.2 0
17.2 0.2 0
17.6 0.2 0
18 0.2 0
18.4 0.2 0
18.8 0.2 0
19.2 0.2 0
19.6 0.2 0
20 0.2 0
20.4 0.2 0
20.8 0.2 0
21.2 0.2 0
21.6 0.2 0
22 0.2 0
22.4 0.2 0
22.8 0.2 0
23.2 0.2 0
23.6 0.2 0
24 0.2 0
24.4 0.2 0
24.8 0.2 0
25.2 0.2 0
25.6 0.2 0
26 0.2 0
26.4 0.2 0
26.8 0.2 0
27.2 0.2 0
27.6 0.2 0
28 0.2 0
28.4 0.2 0
28.8 0.2 0
29.2 0.2 0
29.6 0.2 0
30 0.2 0
30.4 0.2 0
30.8 0.2 0
31.2 0.2 0
31.6 0.2 0
32 0.2 0
32.4 0.2 0
32.8 0.2 0
33.2 0.2 0
33.6 0.2 0
34 0.2 0
34.4 0.2 0
34.8 0.2 0
35.2 0.2 0
35.6 0.2 0
36 0.2 0
36.4 0.2 0
36.8 0.2 0
37.2 0.2 0
37.6 0.2 0
38 0.2 0
38.4 0.2 0
38.8 0.2 0
39.2 0.2 0
39.6 0.2 0
40 0.2 0
40.4 0.2 0
0 0.3 0
0.4 0.3 0
0.8 0.3 0
1.2 0.3 0
1.6 0.3 0
2 0.3 0
2.4 0.3 0
2.8 0.3 0
3.2 0.3 0
3.6 0.3 0
4 0.3 0
4.4 0.3 0
4.8 0.3 0
5.2 0.3 0
5.6 0.3 0
6 0.3 0
6.4 0.3 0
6.8 0.3 0
7.2 0.3 0
7.6 0.3 0
8 0.3 0
8.4 0.3 0
8.8 0.3 0
9.2 0.3 0
9.6 0.3 0
10 0.3 0
10.4 0.3 0
10.8 0.3 0
11.2 0.3 0
11.6 0.3 0
12 0.3 0
12.4 0.3 0
12.8 0.3 0
13.2 0.3 0
13.6 0.3 0
14 0.3 0
14.4 0.3 0
14.8 0.3 0
15.2 0.3 0
15.6 0.3 0
16 0.3 0
16.4 0.3 0
16.8 0.3 0
17.2 0.3 0
17.6 0.3 0
18 0.3 0
18.4 0.3 0
18.8 0.3 0
19.2 0.3 0
19.6 0.3 0
20 0.3 0
20.4 0.3 0
20.8 0.3 0
21.2 0.3 0
21.6 0.3 0
22 0.3 0
22.4 0.3 0
22.8 0.3 0
23.2 0.3 0
23.6 0.3 0
24 0.3 0
24.4 0.3 0
24.8 0.3 0
25.2 0.3 0
25.6 0.3 0
26 0.3 0
26.4 0.3 0
26.8 0.3 0
27.2 0.3 0
27.6 0.3 0
28 0.3 0
28.4 0.3 0
28.8 0.3 0
29.2 0.3 0
29.6 0.3 0
30 0.3 0
30.4 0.3 0
30.8 0.3 0
31.2 0.3 0
31.6 0.3 0
32 0.3 0
32.4 0.3 0
32.8 0.3 0
33.2 0.3 0
33.6 0.3 0
34 0.3 0
34.4 0.3 0
34.8 0.3 0
35.2 0.3 0
35.6 0.3 0
36 0.3 0
36.4 0.3 0
36.8 0.3 0
37.2 0.3 0
37.6 0.3 0
38 0.3 0
38.4 0.3 0
38.8 0.3 0
39.2 0.3 0
39.6 0.3 0
40 0.3 0
40.4 0.3 0
0 0.4 0
0.4 0.4 0
0.8 0.4 0
1.2 0.4 0
1.6 0.4 0
2 0.4 0
2.4 0.4 0
2.8 0.4 0
3.2 0.4 0
3.6 0.4 0
4 0.4 0
4.4 0.4 0
4.8 0.4 0
5.2 0.4 0
5.6 0.4 0
6 0.4 0
6.4 0.4 0
6.8 0.4 0
7.2 0.4 0
7.6 0.4 0
8 0.4 0
8.4 0.4 0
8.8 0.4 0
9.2 0.4 0
9.6 0.4 0
10 0.4 0
10.4 0.4 0
10.8 0.4 0
11.2 0.4 0
11.6 0.4 0
12 0.4 0
12.4 0.4 0
12.8 0.4 0
13.2 0.4 0
13.6 0.4 0
14 0.4 0
14.4 0.4 0
14.8 0.4 0
15.2 0.4 0
15.6 0.4 0
16 0.4 0
16.4 0.4 0
16.8 0.4 0
17.2 0.4 0
17.6 0.4 0
18 0.4 0
18.4 0.4 0
18.8 0.4 0
19.2 0.4 0
19.6 0.4 0
20 0.4 0
20.4 0.4 0
20.8 0.4 0
21.2 0.4 0
21.6 0.4 0
22 0.4 0
22.4 0.4 0
22.8 0.4 0
23.2 0.4 0
23.6 0.4 0
24 0.4 0
24.4 0.4 0
24.8 0.4 0
25.2 0.4 0
25.6 0.4 0
26 0.4 0
26.4 0.4 0
26.8 0.4 0
27.2 0.4 0
27.6 0.4 0
28 0.4 0
28.4 0.4 0
28.8 0.4 0
29.2 0.4 0
29.6 0.4 0
30 0.4 0
30.4 0.4 0
30.8 0.4 0
31.2 0.4 0
31.6 0.4 0
32 0.4 0
32.4 0.4 0
32.8 0.4 0
33.2 0.4 0
33.6 0.4 0
34 0.4 0
34.4 0.4 0
34.8 0.4 0
35.2 0.4 0
35.6 0.4 0
36 0.4 0
36.4 0.4 0
36.8 0.4 0
37.2 0.4 0
37.6 0.4 0
38 0.4 0
38.4 0.4 0
38.8 0.4 0
39.2 0.4 0
39.6 0.4 0
40 0.4 0
40.4 0.4 0
0 0.5 0
0.4 0.5 0
0.8 0.5 0
1.2 0.5 0
1.6 0.5 0
2 0.5 0
2.4 0.5 0
2.8 0.5 0
3.2 0.5 0
3.6 0.5 0
4 0.5 0
4.4 0.5 0
4.8 0.5 0
5.2 0.5 0
5.6 0.5 0
6 0.5 0
6.4 0.5 0
6.8 0.5 0
7.2 0.5 0
7.6 0.5 0
8 0.5 0
8.4 0.5 0
8.8 0.5 0
9.2 0.5 0
9.6 0.5 0
10 0.5 0
10.4 0.5 0
10.8 0.5 0
11.2 0.5 0
11.6 0.5 0
12 0.5 0
12.4 0.5 0
12.8 0.5 0
13.2 0.5 0
13.6 0.5 0
14 0.5 0
14.4 0.5 0
14.8 0.5 0
15.2 0.5 0
15.6 0.5 0
16 0.5 0
16.4 0.5 0
16.8 0.5 0
17.2 0.5 0
17.6 0.5 0
18 0.5 0
18.4 0.5 0
18.8 0.5 0
19.2 0.5 0
19.6 0.5 0
20 0.5 0
20.4 0.5 0
20.8 0.5 0
21.2 0.5 0
21.6 0.5 0
22 0.5 0
22.4 0.5 0
22.8 0.5 0
23.2 0.5 0
23.6 0.5 0
24 0.5 0
24.4 0.5 0
24.8 0.5 0
25.2 0.5 0
25.6 0.5 0
26 0.5 0
26.4 0.5 0
26.8 0.5 0
27.2 0.5 0
27.6 0.5 0
28 0.5 0
28.4 0.5 0
28.8 0.5 0
29.2 0.5 0
29.6 0.5 0
30 0.5 0
30.4 0.5 0
30.8 0.5 0
31.2 0.5 0
31.6 0.5 0
32 0.5 0
32.4 0.5 0
32.8 0.5 0
33.2 0.5 0
33.6 0.5 0
34 0.5 0
34.4 0.5 0
34.8 0.5 0
35.2 0.5 0
35.6 0.5 0
36 0.5 0
36.4 0.5 0
36.8 0.5 0
37.2 0.5 0
37.6 0.5 0
38 0.5 0
38.4 0.5 0
38.8 0.5 0
39.2 0.5 0
39.6 0.5 0
40 0.5 0
40.4 0.5 0
0 0.6 0
0.4 0.6 0
0.8 0.6 0
1.2 0.6 0
1.6 0.6 0
2 0.6 0
2.4 0.6 0
2.8 0.6 0
3.2 0.6 0
3.6 0.6 0
4 0.6 0
4.4 0.6 0
4.8 0.6 0
5.2 0.6 0
5.6 0.6 0
6 0.6 0
6.4 0.6 0
6.8 0.6 0
7.2 0.6 0
7.6 0.6 0
8 0.6 0
8.4 0.6 0
8.8 0.6 0
9.2 0.6 0
9.6 0.6 0
10 0.6 0
10.4 0.6 0
10.8 0.6 0
11.2 0.6 0
11.6 0.6 0
12 0.6 0
12.4 0.6 0
12.8 0.6 0
13.2 0.6 0
13.6 0.6 0
14 0.6 0
14.4 0.6 0
14.8 0.6 0
15.2 0.6 0
15.6 0.6 0
16 0.6 0
16.4 0.6 0
16.8 0.6 0
17.2 0.6 0
17.6 0.6 0
18 0.6 0
18.4 0.6 0
18.8 0.6 0
19.2 0.6 0
19.6 0.6 0
20 0.6 0
20.4 0.6 0
20.8 0.6 0
21.2 0.6 0
21.6 0.6 0
22 0.6 0
22.4 0.6 0
22.8 0.6 0
23.2 0.6 0
23.6 0.6 0
24 0.6 0
24.4 0.6 0
24.8 0.6 0
25.2 0.6 0
25.6 0.6 0
26 0.6 0
26.4 0.6 0
26.8 0.6 0
27.2 0.6 0
27.6 0.6 0
28 0.6 0
28.4 0.6 0
28.8 0.6 0
29.2 0.6 0
29.6 0.6 0
30 0.6 0
30.4 0.6 0
30.8 0.6 0
31.2 0.6 0
31.6 0.6 0
32 0.6 0
32.4 0.6 0
32.8 0.6 0
33.2 0.6 0
33.6 0.6 0
34 0.6 0
34.4 0.6 0
34.8 0.6 0
35.2 0.6 0
35.6 0.6 0
36 0.6 0
36.4 0.6 0
36.8 0.6 0
37.2 0.6 0
37.6 0.6 0
38 0.6 0
38.4 0.6 0
38.8 0.6 0
39.2 0.6 0
39.6 0.6 0
40 0.6 0
40.4 0.6 0
0 0.7 0
0.4 0.7 0
0.8 0.7 0
1.2 0.7 0
1.6 0.7 0
2 0.7 0
2.4 0.7 0
2.8 0.7 0
3.2 0.7 0
3.6 0.7 0
4 0.7 0
4.4 0.7 0
4.8 0.7 0
5.2 0.7 0
5.6 0.7 0
6 0.7 0
6.4 0.7 0
6.8 0.7 0
7.2 0.7 0
7.6 0.7 0
8 0.7 0
8.4 0.7 0
8.8 0.7 0
9.2 0.7 0
9.6 0.7 0
10 0.7 0
10.4 0.7 0
10.8 0.7 0
11.2 0.7 0
11.6 0.7 0
12 0.7 0
12.4 0.7 0
12.8 0.7 0
13.2 0.7 0
13.6 0.7 0
14 0.7 0
14.4 0.7 0
14.8 0.7 0
15.2 0.7 0
15.6 0.7 0
16 0.7 0
16.4 0.7 0
16.8 0.7 0
17.2 0.7 0
17.6 0.7 0
18 0.7 0
18.4 0.7 0
18.8 0.7 0
19.2 0.7 0
19.6 0.7 0
20 0.7 0
20.4 0.7 0
20.8 0.7 0
21.2 0.7 0
21.6 0.7 0
22 0.7 0
22.4 0.7 0
22.8 0.7 0
23.2 0.7 0
23.6 0.7 0
24 0.7 0
24.4 0.7 0
24.8 0.7 0
25.2 0.7 0
25.6 0.7 0
26 0.7 0
26.4 0.7 0
26.8 0.7 0
27.2 0.7 0
27.6 0.7 0
28 0.7 0
28.4 0.7 0
28.8 0.7 0
29.2 0.7 0
29.6 0.7 0
30 0.7 0
30.4 0.7 0
30.8 0.7 0
31.2 0.7 0
31.6 0.7 0
32 0.7 0
32.4 0.7 0
32.8 0.7 0
33.2 0.7 0
33.6 0.7 0
34 0.7 0
34.4 0.7 0
34.8 0.7 0
35.2 0.7 0
35.6 0.7 0
36 0.7 0
36.4 0.7 0
36.8 0.7 0
37.2 0.7 0
37.6 0.7 0
38 0.7 0
38.4 0.7 0
38.8 0.7 0
39.2 0.7 0
39.6 0.7 0
40 0.7 0
40.4 0.7 0
0 0.8 0
0.4 0.8 0
0.8 0.8 0
1.2 0.8 0
1.6 0.8 0
2 0.8 0
2.4 0.8 0
2.8 0.8 0
3.2 0.8 0
3.6 0.8 0
4 0.8 0
4.4 0.8 0
4.8 0.8 0
5.2 0.8 0
5.6 0.8 0
6 0.8 0
6.4 0.8 0
6.8 0.8 0
7.2 0.8 0
7.6 0.8 0
8 0.8 0
8.4 0.8 0
8.8 0.8 0
9.2 0.8 0
9.6 0.8 0
10 0.8 0
10.4 0.8 0
10.8 0.8 0
11.2 0.8 0
11.6 0.8 0
12 0.8 0
12.4 0.8 0
12.8 0.8 0
13.2 0.8 0
13.6 0.8 0
14 0.8 0
14.4 0.8 0
14.8 0.8 0
15.2 0.8 0
15.6 0.8 0
16 0.8 0
16.4 0.8 0
16.8 0.8 0
17.2 0.8 0
17.6 0.8 0
18 0.8 0
18.4 0.8 0
18.8 0.8 0
19.2 0.8 0
19.6 0.8 0
20 0.8 0
20.4 0.8 0
20.8 0.8 0
21.2 0.8 0
21.6 0.8 0
22 0.8 0
22.4 0.8 0
22.8 0.8 0
23.2 0.8 0
23.6 0.8 0
24 0.8 0
24.4 0.8 0
24.8 0.8 0
25.2 0.8 0
25.6 0.8 0
26 0.8 0
26.4 0.8 0
26.8 0.8 0
27.2 0.8 0
27.6 0.8 0
28 0.8 0
28.4 0.8 0
28.8 0.8 0
29.2 0.8 0
29.6 0.8 0
30 0.8 0
30.4 0.8 0
30.8 0.8 0
31.2 0.8 0
31.6 0.8 0
32 0.8 0
32.4 0.8 0
32.8 0.8 0
33.2 0.8 0
33.6 0.8 0
34 0.8 0
34.4 0.8 0
34.8 0.8 0
35.2 0.8 0
35.6 0.8 0
36 0.8 0
36.4 0.8 0
36.8 0.8 0
37.2 0.8 0
37.6 0.8 0
38 0.8 0
38.4 0.8 0
38.8 0.8 0
39.2 0.8 0
39.6 0.8 0
40 0.8 0
40.4 0.8 0
0 0.9 0
0.4 0.9 0
0.8 0.9 0
1.2 0.9 0
1.6 0.9 0
2 0.9 0
2.4 0.9 0
2.8 0.9 0
3.2 0.9 0
3.6 0.9 0
4 0.9 0
4.4 0.9 0
4.8 0.9 0
5.2 0.9 0
5.6 0.9 0
6 0.9 0
6.4 0.9 0
6.8 0.9 0
7.2 0.9 0
7.6 0.9 0
8 0.9 0
8.4 0.9 0
8.8 0.9 0
9.2 0.9 0
9.6 0.9 0
10 0.9 0
10.4 0.9 0
10.8 0.9 0
11.2 0.9 0
11.6 0.9 0
12 0.9 0
12.4 0.9 0
12.8 0.9 0
13.2 0.9 0
13.6 0.9 0
14 0.9 0
14.4 0.9 0
14.8 0.9 0
15.2 0.9 0
15.6 0.9 0
16 0.9 0
16.4 0.9 0
16.8 0.9 0
17.2 0.9 0
17.6 0.9 0
18 0.9 0
18.4 0.9 0
18.8 0.9 0
19.2 0.9 0
19.6 0.9 0
20 0.9 0
20.4 0.9 0
20.8 0.9 0
21.2 0.9 0
21.6 0.9 0
22 0.9 0
22.4 0.9 0
22.8 0.9 0
23.2 0.9 0
23.6 0.9 0
24 0.9 0
24.4 0.9 0
24.8 0.9 0
25.2 0.9 0
25.6 0.9 0
26 0.9 0
26.4 0.9 0
26.8 0.9 0
27.2 0.9 0
27.6 0.9 0
28 0.9 0
28.4 0.9 0
28.8 0.9 0
29.2 0.9 0
29.6 0.9 0
30 0.9 0
30.4 0.9 0
30.8 0.9 0
31.2 0.9 0
31.6 0.9 0
32 0.9 0
32.4 0.9 0
32.8 0.9 0
33.2 0.9 0
33.6 0.9 0
34 0.9 0
34.4 0.9 0
34.8 0.9 0
35.2 0.9 0
35.6 0.9 0
36 0.9 0
36.4 0.9 0
36.8 0.9 0
37.2 0.9 0
37.6 0.9 0
38 0.9 0
38.4 0.9 0
38.8 0.9 0
39.2 0.9 0
39.6 0.9 0
40 0.9 0
40.4 0.9 0
0 1 0
0.4 1 0
0.8 1 0
1.2 1 0
1.6 1 0
2 1 0
2.4 1 0
2.8 1 0
3.2 1 0
3.6 1 0
4 1 0
4.4 1 0
4.8 1 0
5.2 1 0
5.6 1 0
6 1 0
6.4 1 0
6.8 1 0
7.2 1 0
7.6 1 0
8 1 0
8.4 1 0
8.8 1 0
9.2 1 0
9.6 1 0
10 1 0
10.4 1 0
10.8 1 0
11.2 1 0
11.6 1 0
12 1 0
12.4 1 0
12.8 1 0
13.2 1 0
13.6 1 0
14 1 0
14.4 1 0
14.8 1 0
15.2 1 0
15.6 1 0
16 1 0
16.4 1 0
16.8 1 0
17.2 1 0
17.6 1 0
18 1 0
18.4 1 0
18.8 1 0
19.2 1 0
19.6 1 0
20 1 0
20.4 1 0
20.8 1 0
21.2 1 0
21.6 1 0
22 1 0
22.4 1 0
22.8 1 0
23.2 1 0
23.6 1 0
24 1 0
24.4 1 0
24.8 1 0
25.2 1 0
25.6 1 0
26 1 0
26.4 1 0
26.8 1 0
27.2 1 0
27.6 1 0
28 1 0
28.4 1 0
28.8 1 0
29.2 1 0
29.6 1 0
30 1 0
30.4 1 0
30.8 1 0
31.2 1 0
31.6 1 0
32 1 0
32.4 1 0
32.8 1 0
33.2 1 0
33.6 1 0
34 1 0
34.4 1 0
34.8 1 0
35.2 1 0
35.6 1 0
36 1 0
36.4 1 0
36.8 1 0
37.2 1 0
37.6 1 0
38 1 0
38.4 1 0
38.8 1 0
39.2 1 0
39.6 1 0
40 1 0
40.4 1 0
0 1.1 0
0.4 1.1 0
0.8 1.1 0
1.2 1.1 0
1.6 1.1 0
2 1.1 0
2.4 1.1 0
2.8 1.1 0
3.2 1.1 0
3.6 1.1 0
4 1.1 0
4.4 1.1 0
4.8 1.1 0
5.2 1.1 0
5.6 1.1 0
6 1.1 0
6.4 1.1 0
6.8 1.1 0
7.2 1.1 0
7.6 1.1 0
8 1.1 0
8.4 1.1 0
8.8 1.1 0
9.2 1.1 0
9.6 1.1 0
10 1.1 0
10.4 1.1 0
10.8 1.1 0
11.2 1.1 0
11.6 1.1 0
12 1.1 0
12.4 1.1 0
12.8 1.1 0
13.2 1.1 0
13.6 1.1 0
14 1.1 0
14.4 1.1 0
14.8 1.1 0
15.2 1.1 0
15.6 1.1 0
16 1.1 0
16.4 1.1 0
16.8 1.1 0
17.2 1.1 0
17.6 1.1 0
18 1.1 0
18.4 1.1 0
18.8 1.1 0
19.2 1.1 0
19.6 1.1 0
20 1.1 0
20.4 1.1 0
20.8 1.1 0
21.2 1.1 0
21.6 1.1 0
22 1.1 0
22.4 1.1 0
22.8 1.1 0
23.2 1.1 0
23.6 1.1 0
24 1.1 0
24.4 1.1 0
24.8 1.1 0
25.2 1.1 0
25.6 1.1 0
26 1.1 0
26.4 1.1 0
26.8 1.1 0
27.2 1.1 0
27.6 1.1 0
28 1.1 0
28.4 1.1 0
28.8 1.1 0
29.2 1.1 0
29.6 1.1 0
30 1.1 0
30.4 1.1 0
30.8 1.1 0
31.2 1.1 0
31.6 1.1 0
32 1.1 0
32.4 1.1 0
32.8 1.1 0
33.2 1.1 0
33.6 1.1 0
34 1.1 0
34.4 1.1 0
34.8 1.1 0
35.2 1.1 0
35.6 1.1 0
36 1.1 0
36.4 1.1 0
36.8 1.1 0
37.2 1.1 0
37.6 1.1 0
38 1.1 0
38.4 1.1 0
38.8 1.1 0
39.2 1.1 0
39.6 1.1 0
40 1.1 0
40.4 1.1 0

POINT_DATA 1224

SCALARS u double
LOOKUP_TABLE default
-1.15892
-0.84108
-0.627644
-0.526098
-0.490904
-0.481823
-0.480119
-0.479933
-0.479947
-0.479959
-0.479963
-0.479964
-0.479965
-0.479965
-0.479966
-0.479966
-0.479966
-0.479967
-0.479967
-0.479968
-0.479968
-0.479969
-0.479969
-0.479969
-0.47997
-0.47997
-0.47997
-0.479971
-0.479971
-0.479971
-0.479972
-0.479972
-0.479972
-0.479973
-0.479973
-0.479973
-0.479973
-0.479974
-0.479974
-0.479974
-0.479974
-0.479975
-0.479975
-0.479975
-0.479975
-0.479975
-0.479975
-0.479975
-0.479976
-0.479976
-0.479976
-0.479976
-0.479976
-0.479976
-0.479976
-0.479976
-0.479976
-0.479976
-0.479976
-0.479976
-0.479976
-0.479976
-0.479976
-0.479976
-0.479976
-0.479976
-0.479976
-0.479976
-0.479975
-0.479975
-0.479975
-0.479975
-0.479975
-0.479975
-0.479974
-0.479974
-0.479974
-0.479974
-0.479974
-0.479973
-0.479973
-0.479973
-0.479973
-0.479972
-0.479972
-0.479972
-0.479972
-0.479971
-0.479971
-0.479971
-0.47997
-0.47997
-0.47997
-0.479969
-0.479969
-0.47997
-0.479972
-0.480004
-0.48005
-0.481224
-0.481224
-1
1.15892
0.84108
0.627644
0.526098
0.490904
0.481823
0.480119
0.479933
0.479947
0.479959
0.479963
0.479964
0.479965
0.479965
0.479966
0.479966
0.479966
0.479967
0.479967
0.479968
0.479968
0.479969
0.479969
0.479969
0.47997
0.47997
0.47997
0.479971
0.479971
0.479971
0.479972
0.479972
0.479972
0.479973
0.479973
0.479973
0.479973
0.479974
0.479974
0.479974
0.479974
0.479975
0.479975
0.479975
0.479975
0.479975
0.479975
0.479975
0.479976
0.479976
0.479976
0.479976
0.479976
0.479976
0.479976
0.479976
0.479976
0.479976
0.479976
0.479976
0.479976
0.479976
0.479976
0.479976
0.479976
0.479976
0.479976
0.479976
0.479975
0.479975
0.479975
0.479975
0.479975
0.479975
0.479974
0.479974
0.479974
0.479974
0.479974
0.479973
0.479973
0.479973
0.479973
0.479972
0.479972
0.479972
0.479972
0.479971
0.479971
0.479971
0.47997
0.47997
0.47997
0.479969
0.479969
0.47997
0.479972
0.480004
0.48005
0.481224
0.481224
1
0.977836
1.02216
1.00831
0.99362
0.987642
0.986505
0.986684
0.986922
0.987028
0.987062
0.987071
0.987074
0.987074
0.987075
0.987075
0.987076
0.987076
0.987076
0.987077
0.987077
0.987077
0.987078
0.987078
0.987078
0.987078
0.987079
0.987079
0.987079
0.987079
0.987079
0.98708
0.98708
0.98708
0.98708
0.98708
0.98708
0.98708
0.98708
0.98708
0.98708
0.98708
0.98708
0.98708
0.98708
0.98708
0.98708
0.98708
0.98708
0.98708
0.98708
0.98708
0.987079
0.987079
0.987079
0.987079
0.987078
0.987078
0.987078
0.987077
0.987077
0.987077
0.987076
0.987076
0.987076
0.987075
0.987075
0.987074
0.987074
0.987073
0.987073
0.987072
0.987072
0.987071
0.98707
0.98707
0.987069
0.987069
0.987068
0.987067
0.987067
0.987066
0.987065
0.987065
0.987064
0.987063
0.987062
0.987062
0.987061
0.98706
0.987059
0.987059
0.987058
0.987057
0.987056
0.987056
0.987055
0.987055
0.987074
0.987079
0.987838
0.987838
1
0.953349
1.04665
1.10898
1.13784
1.14764
1.15017
1.15067
1.15076
1.15077
1.15077
1.15077
1.15077
1.15077
1.15077
1.15077
1.15077
1.15077
1.15077
1.15077
1.15077
1.15077
1.15077
1.15077
1.15077
1.15077
1.15077
1.15077
1.15077
1.15077
1.15077
1.15077
1.15077
1.15077
1.15077
1.15077
1.15077
1.15077
1.15077
1.15077
1.15077
1.15077
1.15077
1.15077
1.15077
1.15077
1.15077
1.15077
1.15077
1.15077
1.15077
1.15077
1.15077
1.15077
1.15077
1.15077
1.15077
1.15077
1.15077
1.15077
1.15077
1.15077
1.15077
1.15076
1.15076
1.15076
1.15076
1.15076
1.15076
1.15076
1.15076
1.15076
1.15076
1.15076
1.15076
1.15076
1.15076
1.15076
1.15076
1.15076
1.15075
1.15075
1.15075
1.15075
1.15075
1.15075
1.15075
1.15075
1.15075
1.15075
1.15075
1.15075
1.15075
1.15075
1.15074
1.15074
1.15074
1.15074
1.15073
1.15075
1.15043
1.15043
1
0.953901
1.0461
1.1272
1.16923
1.18405
1.18762
1.18808
1.18802
1.18796
1.18794
1.18794
1.18793
1.18793
1.18793
1.18793
1.18793
1.18793
1.18793
1.18793
1.18793
1.18793
1.18793
1.18793
1.18793
1.18793
1.18793
1.18793
1.18793
1.18793
1.18793
1.18793
1.18793
1.18793
1.18793
1.18793
1.18793
1.18793
1.18793
1.18793
1.18793
1.18793
1.18793
1.18793
1.18793
1.18793
1.18793
1.18793
1.18793
1.18793
1.18793
1.18793
1.18793
1.18793
1.18793
1.18793
1.18792
1.18792
1.18792
1.18792
1.18792
1.18792
1.18792
1.18792
1.18792
1.18792
1.18792
1.18792
1.18792
1.18792
1.18792
1.18792
1.18792
1.18792
1.18792
1.18792
1.18791
1.18791
1.18791
1.18791
1.18791
1.18791
1.18791
1.18791
1.18791
1.18791
1.18791
1.18791
1.18791
1.18791
1.18791
1.1879
1.1879
1.1879
1.1879
1.1879
1.1879
1.1879
1.18788
1.18786
1.1871
1.1871
1
0.955992
1.04401
1.12787
1.17321
1.18977
1.1939
1.19445
1.19438
1.19431
1.19428
1.19427
1.19427
1.19427
1.19427
1.19427
1.19427
1.19427
1.19427
1.19427
1.19427
1.19427
1.19427
1.19427
1.19427
1.19427
1.19427
1.19427
1.19427
1.19427
1.19427
1.19427
1.19427
1.19427
1.19427
1.19427
1.19427
1.19427
1.19427
1.19427
1.19427
1.19427
1.19427
1.19427
1.19427
1.19427
1.19427
1.19427
1.19426
1.19426
1.19426
1.19426
1.19426
1.19426
1.19426
1.19426
1.19426
1.19426
1.19426
1.19426
1.19426
1.19426
1.19426
1.19426
1.19426
1.19426
1.19426
1.19426
1.19426
1.19426
1.19425
1.19425
1.19425
1.19425
1.19425
1.19425
1.19425
1.19425
1.19425
1.19425
1.19425
1.19425
1.19425
1.19425
1.19425
1.19425
1.19425
1.19424
1.19424
1.19424
1.19424
1.19424
1.19424
1.19424
1.19424
1.19424
1.19424
1.19423
1.19421
1.19416
1.19331
1.19331
1
0.955992
1.04401
1.12787
1.17321
1.18977
1.1939
1.19445
1.19438
1.19431
1.19428
1.19427
1.19427
1.19427
1.19427
1.19427
1.19427
1.19427
1.19427
1.19427
1.19427
1.19427
1.19427
1.19427
1.19427
1.19427
1.19427
1.19427
1.19427
1.19427
1.19427
1.19427
1.19427
1.19427
1.19427
1.19427
1.19427
1.19427
1.19427
1.19427
1.19427
1.19427
1.19427
1.19427
1.19427
1.19427
1.19427
1.19427
1.19426
1.19426
1.19426
1.19426
1.19426
1.19426
1.19426
1.19426
1.19426
1.19426
1.19426
1.19426
1.19426
1.19426
1.19426
1.19426
1.19426
1.19426
1.19426
1.19426
1.19426
1.19426
1.19425
1.19425
1.19425
1.19425
1.19425
1.19425
1.19425
1.19425
1.19425
1.19425
1.19425
1.19425
1.19425
1.19425
1.19425
1.19425
1.19425
1.19424
1.19424
1.19424
1.19424
1.19424
1.19424
1.19424
1.19424
1.19424
1.19424
1.19423
1.19421
1.19416
1.19331
1.19331
1
0.953901
1.0461
1.1272
1.16923
1.18405
1.18762
1.18808
1.18802
1.18796
1.18794
1.18793
1.18793
1.18793
1.18793
1.18793
1.18793
1.18793
1.18793
1.18793
1.18793
1.18793
1.18793
1.18793
1.18793
1.18793
1.18793
1.18793
1.18793
1.18793
1.18793
1.18793
1.18793
1.18793
1.18793
1.18793
1.18793
1.18793
1.18793
1.18793
1.18793
1.18793
1.18793
1.18793
1.18793
1.18793
1.18793
1.18793
1.18793
1.18793
1.18793
1.18793
1.18793
1.18793
1.18793
1.18792
1.18792
1.18792
1.18792
1.18792
1.18792
1.18792
1.18792
1.18792
1.18792
1.18792
1.18792
1.18792
1.18792
1.18792
1.18792
1.18792
1.18792
1.18792
1.18792
1.18791
1.18791
1.18791
1.18791
1.18791
1.18791
1.18791
1.18791
1.18791
1.18791
1.18791
1.18791
1.18791
1.18791
1.18791
1.18791
1.1879
1.1879
1.1879
1.1879
1.1879
1.1879
1.1879
1.18788
1.18786
1.1871
1.1871
1
0.95335
1.04665
1.10898
1.13784
1.14764
1.15017
1.15067
1.15075
1.15077
1.15077
1.15077
1.15077
1.15077
1.15077
1.15077
1.15077
1.15077
1.15077
1.15077
1.15077
1.15077
1.15077
1.15077
1.15077
1.15077
1.15077
1.15077
1.15077
1.15077
1.15077
1.15077
1.15077
1.15077
1.15077
1.15077
1.15077
1.15077
1.15077
1.15077
1.15077
1.15077
1.15077
1.15077
1.15077
1.15077
1.15077
1.15077
1.15077
1.15077
1.15077
1.15077
1.15077
1.15077
1.15077
1.15077
1.15077
1.15077
1.15077
1.15077
1.15077
1.15076
1.15076
1.15076
1.15076
1.15076
1.15076
1.15076
1.15076
1.15076
1.15076
1.15076
1.15076
1.15076
1.15076
1.15076
1.15076
1.15076
1.15076
1.15075
1.15075
1.15075
1.15075
1.15075
1.15075
1.15075
1.15075
1.15075
1.15075
1.15075
1.15075
1.15075
1.15075
1.15074
1.15074
1.15074
1.15074
1.15074
1.15073
1.15075
1.15043
1.15043
1
0.977836
1.02216
1.0083
0.993618
0.987639
0.986501
0.986681
0.986918
0.987024
0.987058
0.987067
0.987069
0.98707
0.987071
0.987071
0.987071
0.987072
0.987072
0.987072
0.987073
0.987073
0.987073
0.987074
0.987074
0.987074
0.987075
0.987075
0.987075
0.987075
0.987076
0.987076
0.987076
0.987076
0.987076
0.987077
0.987077
0.987077
0.987077
0.987077
0.987077
0.987077
0.987077
0.987077
0.987077
0.987077
0.987077
0.987077
0.987077
0.987077
0.987077
0.987076
0.987076
0.987076
0.987076
0.987076
0.987075
0.987075
0.987075
0.987075
0.987074
0.987074
0.987074
0.987073
0.987073
0.987072
0.987072
0.987071
0.987071
0.987071
0.98707
0.98707
0.987069
0.987069
0.987068
0.987067
0.987067
0.987066
0.987066
0.987065
0.987064
0.987064
0.987063
0.987062
0.987062
0.987061
0.98706
0.98706
0.987059
0.987058
0.987057
0.987057
0.987056
0.987055
0.987054
0.987054
0.987053
0.987054
0.987072
0.987077
0.987836
0.987836
1
1.15892
0.841081
0.627644
0.526096
0.490901
0.481819
0.480115
0.479929
0.479943
0.479956
0.479959
0.47996
0.479961
0.479961
0.479962
0.479962
0.479963
0.479963
0.479963
0.479964
0.479964
0.479965
0.479965
0.479965
0.479966
0.479966
0.479966
0.479967
0.479967
0.479967
0.479968
0.479968
0.479968
0.479969
0.479969
0.479969
0.479969
0.47997
0.47997
0.47997
0.47997
0.479971
0.479971
0.479971
0.479971
0.479971
0.479971
0.479971
0.479972
0.479972
0.479972
0.479972
0.479972
0.479972
0.479972
0.479972
0.479972
0.479972
0.479972
0.479972
0.479972
0.479972
0.479972
0.479972
0.479972
0.479972
0.479972
0.479972
0.479971
0.479971
0.479971
0.479971
0.479971
0.479971
0.479971
0.47997
0.47997
0.47997
0.47997
0.479969
0.479969
0.479969
0.479969
0.479969
0.479968
0.479968
0.479968
0.479967
0.479967
0.479967
0.479967
0.479966
0.479966
0.479966
0.479965
0.479966
0.479968
0.48
0.480045
0.48122
0.48122
1
-1.15892
-0.841081
-0.627644
-0.526096
-0.490901
-0.481819
-0.480115
-0.479929
-0.479943
-0.479956
-0.479959
-0.47996
-0.479961
-0.479961
-0.479962
-0.479962
-0.479963
-0.479963
-0.479963
-0.479964
-0.479964
-0.479965
-0.479965
-0.479965
-0.479966
-0.479966
-0.479966
-0.479967
-0.479967
-0.479967
-0.479968
-0.479968
-0.479968
-0.479969
-0.479969
-0.479969
-0.479969
-0.47997
-0.47997
-0.47997
-0.47997
-0.479971
-0.479971
-0.479971
-0.479971
-0.479971
-0.479971
-0.479971
-0.479972
-0.479972
-0.479972
-0.479972
-0.479972
-0.479972
-0.479972
-0.479972
-0.479972
-0.479972
-0.479972
-0.479972
-0.479972
-0.479972
-0.479972
-0.479972
-0.479972
-0.479972
-0.479972
-0.479972
-0.479971
-0.479971
-0.479971
-0.479971
-0.479971
-0.479971
-0.479971
-0.47997
-0.47997
-0.47997
-0.47997
-0.479969
-0.479969
-0.479969
-0.479969
-0.479969
-0.479968
-0.479968
-0.479968
-0.479967
-0.479967
-0.479967
-0.479967
-0.479966
-0.479966
-0.479966
-0.479965
-0.479966
-0.479968
-0.48
-0.480045
-0.48122
-0.48122
-1
