# vtk DataFile Version 2.0
FlowField
ASCII
DATASET STRUCTURED_GRID
DIMENSIONS 102 1 12 
POINTS 1224 double
0 0 0
0.4 0 0
0.8 0 0
1.2 0 0
1.6 0 0
2 0 0
2.4 0 0
2.8 0 0
3.2 0 0
3.6 0 0
4 0 0
4.4 0 0
4.8 0 0
5.2 0 0
5.6 0 0
6 0 0
6.4 0 0
6.8 0 0
7.2 0 0
7.6 0 0
8 0 0
8.4 0 0
8.8 0 0
9.2 0 0
9.6 0 0
10 0 0
10.4 0 0
10.8 0 0
11.2 0 0
11.6 0 0
12 0 0
12.4 0 0
12.8 0 0
13.2 0 0
13.6 0 0
14 0 0
14.4 0 0
14.8 0 0
15.2 0 0
15.6 0 0
16 0 0
16.4 0 0
16.8 0 0
17.2 0 0
17.6 0 0
18 0 0
18.4 0 0
18.8 0 0
19.2 0 0
19.6 0 0
20 0 0
20.4 0 0
20.8 0 0
21.2 0 0
21.6 0 0
22 0 0
22.4 0 0
22.8 0 0
23.2 0 0
23.6 0 0
24 0 0
24.4 0 0
24.8 0 0
25.2 0 0
25.6 0 0
26 0 0
26.4 0 0
26.8 0 0
27.2 0 0
27.6 0 0
28 0 0
28.4 0 0
28.8 0 0
29.2 0 0
29.6 0 0
30 0 0
30.4 0 0
30.8 0 0
31.2 0 0
31.6 0 0
32 0 0
32.4 0 0
32.8 0 0
33.2 0 0
33.6 0 0
34 0 0
34.4 0 0
34.8 0 0
35.2 0 0
35.6 0 0
36 0 0
36.4 0 0
36.8 0 0
37.2 0 0
37.6 0 0
38 0 0
38.4 0 0
38.8 0 0
39.2 0 0
39.6 0 0
40 0 0
40.4 0 0
0 0.1 0
0.4 0.1 0
0.8 0.1 0
1.2 0.1 0
1.6 0.1 0
2 0.1 0
2.4 0.1 0
2.8 0.1 0
3.2 0.1 0
3.6 0.1 0
4 0.1 0
4.4 0.1 0
4.8 0.1 0
5.2 0.1 0
5.6 0.1 0
6 0.1 0
6.4 0.1 0
6.8 0.1 0
7.2 0.1 0
7.6 0.1 0
8 0.1 0
8.4 0.1 0
8.8 0.1 0
9.2 0.1 0
9.6 0.1 0
10 0.1 0
10.4 0.1 0
10.8 0.1 0
11.2 0.1 0
11.6 0.1 0
12 0.1 0
12.4 0.1 0
12.8 0.1 0
13.2 0.1 0
13.6 0.1 0
14 0.1 0
14.4 0.1 0
14.8 0.1 0
15.2 0.1 0
15.6 0.1 0
16 0.1 0
16.4 0.1 0
16.8 0.1 0
17.2 0.1 0
17.6 0.1 0
18 0.1 0
18.4 0.1 0
18.8 0.1 0
19.2 0.1 0
19.6 0.1 0
20 0.1 0
20.4 0.1 0
20.8 0.1 0
21.2 0.1 0
21.6 0.1 0
22 0.1 0
22.4 0.1 0
22.8 0.1 0
23.2 0.1 0
23.6 0.1 0
24 0.1 0
24.4 0.1 0
24.8 0.1 0
25.2 0.1 0
25.6 0.1 0
26 0.1 0
26.4 0.1 0
26.8 0.1 0
27.2 0.1 0
27.6 0.1 0
28 0.1 0
28.4 0.1 0
28.8 0.1 0
29.2 0.1 0
29.6 0.1 0
30 0.1 0
30.4 0.1 0
30.8 0.1 0
31.2 0.1 0
31.6 0.1 0
32 0.1 0
32.4 0.1 0
32.8 0.1 0
33.2 0.1 0
33.6 0.1 0
34 0.1 0
34.4 0.1 0
34.8 0.1 0
35.2 0.1 0
35.6 0.1 0
36 0.1 0
36.4 0.1 0
36.8 0.1 0
37.2 0.1 0
37.6 0.1 0
38 0.1 0
38.4 0.1 0
38.8 0.1 0
39.2 0.1 0
39.6 0.1 0
40 0.1 0
40.4 0.1 0
0 0.2 0
0.4 0.2 0
0.8 0.2 0
1.2 0.2 0
1.6 0.2 0
2 0.2 0
2.4 0.2 0
2.8 0.2 0
3.2 0.2 0
3.6 0.2 0
4 0.2 0
4.4 0.2 0
4.8 0.2 0
5.2 0.2 0
5.6 0.2 0
6 0.2 0
6.4 0.2 0
6.8 0.2 0
7.2 0.2 0
7.6 0.2 0
8 0.2 0
8.4 0.2 0
8.8 0.2 0
9.2 0.2 0
9.6 0.2 0
10 0.2 0
10.4 0.2 0
10.8 0.2 0
11.2 0.2 0
11.6 0.2 0
12 0.2 0
12.4 0.2 0
12.8 0.2 0
13.2 0.2 0
13.6 0.2 0
14 0.2 0
14.4 0.2 0
14.8 0.2 0
15.2 0.2 0
15.6 0.2 0
16 0.2 0
16.4 0.2 0
16.8 0.2 0
17.2 0.2 0
17.6 0.2 0
18 0.2 0
18.4 0.2 0
18.8 0.2 0
19.2 0.2 0
19.6 0.2 0
20 0.2 0
20.4 0.2 0
20.8 0.2 0
21.2 0.2 0
21.6 0.2 0
22 0.2 0
22.4 0.2 0
22.8 0.2 0
23.2 0.2 0
23.6 0.2 0
24 0.2 0
24.4 0.2 0
24.8 0.2 0
25.2 0.2 0
25.6 0.2 0
26 0.2 0
26.4 0.2 0
26.8 0.2 0
27.2 0.2 0
27.6 0.2 0
28 0.2 0
28.4 0.2 0
28.8 0.2 0
29.2 0.2 0
29.6 0.2 0
30 0.2 0
30.4 0.2 0
30.8 0.2 0
31.2 0.2 0
31.6 0.2 0
32 0.2 0
32.4 0.2 0
32.8 0.2 0
33.2 0.2 0
33.6 0.2 0
34 0.2 0
34.4 0.2 0
34.8 0.2 0
35.2 0.2 0
35.6 0.2 0
36 0.2 0
36.4 0.2 0
36.8 0.2 0
37.2 0.2 0
37.6 0.2 0
38 0.2 0
38.4 0.2 0
38.8 0.2 0
39.2 0.2 0
39.6 0.2 0
40 0.2 0
40.4 0.2 0
0 0.3 0
0.4 0.3 0
0.8 0.3 0
1.2 0.3 0
1.6 0.3 0
2 0.3 0
2.4 0.3 0
2.8 0.3 0
3.2 0.3 0
3.6 0.3 0
4 0.3 0
4.4 0.3 0
4.8 0.3 0
5.2 0.3 0
5.6 0.3 0
6 0.3 0
6.4 0.3 0
6.8 0.3 0
7.2 0.3 0
7.6 0.3 0
8 0.3 0
8.4 0.3 0
8.8 0.3 0
9.2 0.3 0
9.6 0.3 0
10 0.3 0
10.4 0.3 0
10.8 0.3 0
11.2 0.3 0
11.6 0.3 0
12 0.3 0
12.4 0.3 0
12.8 0.3 0
13.2 0.3 0
13.6 0.3 0
14 0.3 0
14.4 0.3 0
14.8 0.3 0
15.2 0.3 0
15.6 0.3 0
16 0.3 0
16.4 0.3 0
16.8 0.3 0
17.2 0.3 0
17.6 0.3 0
18 0.3 0
18.4 0.3 0
18.8 0.3 0
19.2 0.3 0
19.6 0.3 0
20 0.3 0
20.4 0.3 0
20.8 0.3 0
21.2 0.3 0
21.6 0.3 0
22 0.3 0
22.4 0.3 0
22.8 0.3 0
23.2 0.3 0
23.6 0.3 0
24 0.3 0
24.4 0.3 0
24.8 0.3 0
25.2 0.3 0
25.6 0.3 0
26 0.3 0
26.4 0.3 0
26.8 0.3 0
27.2 0.3 0
27.6 0.3 0
28 0.3 0
28.4 0.3 0
28.8 0.3 0
29.2 0.3 0
29.6 0.3 0
30 0.3 0
30.4 0.3 0
30.8 0.3 0
31.2 0.3 0
31.6 0.3 0
32 0.3 0
32.4 0.3 0
32.8 0.3 0
33.2 0.3 0
33.6 0.3 0
34 0.3 0
34.4 0.3 0
34.8 0.3 0
35.2 0.3 0
35.6 0.3 0
36 0.3 0
36.4 0.3 0
36.8 0.3 0
37.2 0.3 0
37.6 0.3 0
38 0.3 0
38.4 0.3 0
38.8 0.3 0
39.2 0.3 0
39.6 0.3 0
40 0.3 0
40.4 0.3 0
0 0.4 0
0.4 0.4 0
0.8 0.4 0
1.2 0.4 0
1.6 0.4 0
2 0.4 0
2.4 0.4 0
2.8 0.4 0
3.2 0.4 0
3.6 0.4 0
4 0.4 0
4.4 0.4 0
4.8 0.4 0
5.2 0.4 0
5.6 0.4 0
6 0.4 0
6.4 0.4 0
6.8 0.4 0
7.2 0.4 0
7.6 0.4 0
8 0.4 0
8.4 0.4 0
8.8 0.4 0
9.2 0.4 0
9.6 0.4 0
10 0.4 0
10.4 0.4 0
10.8 0.4 0
11.2 0.4 0
11.6 0.4 0
12 0.4 0
12.4 0.4 0
12.8 0.4 0
13.2 0.4 0
13.6 0.4 0
14 0.4 0
14.4 0.4 0
14.8 0.4 0
15.2 0.4 0
15.6 0.4 0
16 0.4 0
16.4 0.4 0
16.8 0.4 0
17.2 0.4 0
17.6 0.4 0
18 0.4 0
18.4 0.4 0
18.8 0.4 0
19.2 0.4 0
19.6 0.4 0
20 0.4 0
20.4 0.4 0
20.8 0.4 0
21.2 0.4 0
21.6 0.4 0
22 0.4 0
22.4 0.4 0
22.8 0.4 0
23.2 0.4 0
23.6 0.4 0
24 0.4 0
24.4 0.4 0
24.8 0.4 0
25.2 0.4 0
25.6 0.4 0
26 0.4 0
26.4 0.4 0
26.8 0.4 0
27.2 0.4 0
27.6 0.4 0
28 0.4 0
28.4 0.4 0
28.8 0.4 0
29.2 0.4 0
29.6 0.4 0
30 0.4 0
30.4 0.4 0
30.8 0.4 0
31.2 0.4 0
31.6 0.4 0
32 0.4 0
32.4 0.4 0
32.8 0.4 0
33.2 0.4 0
33.6 0.4 0
34 0.4 0
34.4 0.4 0
34.8 0.4 0
35.2 0.4 0
35.6 0.4 0
36 0.4 0
36.4 0.4 0
36.8 0.4 0
37.2 0.4 0
37.6 0.4 0
38 0.4 0
38.4 0.4 0
38.8 0.4 0
39.2 0.4 0
39.6 0.4 0
40 0.4 0
40.4 0.4 0
0 0.5 0
0.4 0.5 0
0.8 0.5 0
1.2 0.5 0
1.6 0.5 0
2 0.5 0
2.4 0.5 0
2.8 0.5 0
3.2 0.5 0
3.6 0.5 0
4 0.5 0
4.4 0.5 0
4.8 0.5 0
5.2 0.5 0
5.6 0.5 0
6 0.5 0
6.4 0.5 0
6.8 0.5 0
7.2 0.5 0
7.6 0.5 0
8 0.5 0
8.4 0.5 0
8.8 0.5 0
9.2 0.5 0
9.6 0.5 0
10 0.5 0
10.4 0.5 0
10.8 0.5 0
11.2 0.5 0
11.6 0.5 0
12 0.5 0
12.4 0.5 0
12.8 0.5 0
13.2 0.5 0
13.6 0.5 0
14 0.5 0
14.4 0.5 0
14.8 0.5 0
15.2 0.5 0
15.6 0.5 0
16 0.5 0
16.4 0.5 0
16.8 0.5 0
17.2 0.5 0
17.6 0.5 0
18 0.5 0
18.4 0.5 0
18.8 0.5 0
19.2 0.5 0
19.6 0.5 0
20 0.5 0
20.4 0.5 0
20.8 0.5 0
21.2 0.5 0
21.6 0.5 0
22 0.5 0
22.4 0.5 0
22.8 0.5 0
23.2 0.5 0
23.6 0.5 0
24 0.5 0
24.4 0.5 0
24.8 0.5 0
25.2 0.5 0
25.6 0.5 0
26 0.5 0
26.4 0.5 0
26.8 0.5 0
27.2 0.5 0
27.6 0.5 0
28 0.5 0
28.4 0.5 0
28.8 0.5 0
29.2 0.5 0
29.6 0.5 0
30 0.5 0
30.4 0.5 0
30.8 0.5 0
31.2 0.5 0
31.6 0.5 0
32 0.5 0
32.4 0.5 0
32.8 0.5 0
33.2 0.5 0
33.6 0.5 0
34 0.5 0
34.4 0.5 0
34.8 0.5 0
35.2 0.5 0
35.6 0.5 0
36 0.5 0
36.4 0.5 0
36.8 0.5 0
37.2 0.5 0
37.6 0.5 0
38 0.5 0
38.4 0.5 0
38.8 0.5 0
39.2 0.5 0
39.6 0.5 0
40 0.5 0
40.4 0.5 0
0 0.6 0
0.4 0.6 0
0.8 0.6 0
1.2 0.6 0
1.6 0.6 0
2 0.6 0
2.4 0.6 0
2.8 0.6 0
3.2 0.6 0
3.6 0.6 0
4 0.6 0
4.4 0.6 0
4.8 0.6 0
5.2 0.6 0
5.6 0.6 0
6 0.6 0
6.4 0.6 0
6.8 0.6 0
7.2 0.6 0
7.6 0.6 0
8 0.6 0
8.4 0.6 0
8.8 0.6 0
9.2 0.6 0
9.6 0.6 0
10 0.6 0
10.4 0.6 0
10.8 0.6 0
11.2 0.6 0
11.6 0.6 0
12 0.6 0
12.4 0.6 0
12.8 0.6 0
13.2 0.6 0
13.6 0.6 0
14 0.6 0
14.4 0.6 0
14.8 0.6 0
15.2 0.6 0
15.6 0.6 0
16 0.6 0
16.4 0.6 0
16.8 0.6 0
17.2 0.6 0
17.6 0.6 0
18 0.6 0
18.4 0.6 0
18.8 0.6 0
19.2 0.6 0
19.6 0.6 0
20 0.6 0
20.4 0.6 0
20.8 0.6 0
21.2 0.6 0
21.6 0.6 0
22 0.6 0
22.4 0.6 0
22.8 0.6 0
23.2 0.6 0
23.6 0.6 0
24 0.6 0
24.4 0.6 0
24.8 0.6 0
25.2 0.6 0
25.6 0.6 0
26 0.6 0
26.4 0.6 0
26.8 0.6 0
27.2 0.6 0
27.6 0.6 0
28 0.6 0
28.4 0.6 0
28.8 0.6 0
29.2 0.6 0
29.6 0.6 0
30 0.6 0
30.4 0.6 0
30.8 0.6 0
31.2 0.6 0
31.6 0.6 0
32 0.6 0
32.4 0.6 0
32.8 0.6 0
33.2 0.6 0
33.6 0.6 0
34 0.6 0
34.4 0.6 0
34.8 0.6 0
35.2 0.6 0
35.6 0.6 0
36 0.6 0
36.4 0.6 0
36.8 0.6 0
37.2 0.6 0
37.6 0.6 0
38 0.6 0
38.4 0.6 0
38.8 0.6 0
39.2 0.6 0
39.6 0.6 0
40 0.6 0
40.4 0.6 0
0 0.7 0
0.4 0.7 0
0.8 0.7 0
1.2 0.7 0
1.6 0.7 0
2 0.7 0
2.4 0.7 0
2.8 0.7 0
3.2 0.7 0
3.6 0.7 0
4 0.7 0
4.4 0.7 0
4.8 0.7 0
5.2 0.7 0
5.6 0.7 0
6 0.7 0
6.4 0.7 0
6.8 0.7 0
7.2 0.7 0
7.6 0.7 0
8 0.7 0
8.4 0.7 0
8.8 0.7 0
9.2 0.7 0
9.6 0.7 0
10 0.7 0
10.4 0.7 0
10.8 0.7 0
11.2 0.7 0
11.6 0.7 0
12 0.7 0
12.4 0.7 0
12.8 0.7 0
13.2 0.7 0
13.6 0.7 0
14 0.7 0
14.4 0.7 0
14.8 0.7 0
15.2 0.7 0
15.6 0.7 0
16 0.7 0
16.4 0.7 0
16.8 0.7 0
17.2 0.7 0
17.6 0.7 0
18 0.7 0
18.4 0.7 0
18.8 0.7 0
19.2 0.7 0
19.6 0.7 0
20 0.7 0
20.4 0.7 0
20.8 0.7 0
21.2 0.7 0
21.6 0.7 0
22 0.7 0
22.4 0.7 0
22.8 0.7 0
23.2 0.7 0
23.6 0.7 0
24 0.7 0
24.4 0.7 0
24.8 0.7 0
25.2 0.7 0
25.6 0.7 0
26 0.7 0
26.4 0.7 0
26.8 0.7 0
27.2 0.7 0
27.6 0.7 0
28 0.7 0
28.4 0.7 0
28.8 0.7 0
29.2 0.7 0
29.6 0.7 0
30 0.7 0
30.4 0.7 0
30.8 0.7 0
31.2 0.7 0
31.6 0.7 0
32 0.7 0
32.4 0.7 0
32.8 0.7 0
33.2 0.7 0
33.6 0.7 0
34 0.7 0
34.4 0.7 0
34.8 0.7 0
35.2 0.7 0
35.6 0.7 0
36 0.7 0
36.4 0.7 0
36.8 0.7 0
37.2 0.7 0
37.6 0.7 0
38 0.7 0
38.4 0.7 0
38.8 0.7 0
39.2 0.7 0
39.6 0.7 0
40 0.7 0
40.4 0.7 0
0 0.8 0
0.4 0.8 0
0.8 0.8 0
1.2 0.8 0
1.6 0.8 0
2 0.8 0
2.4 0.8 0
2.8 0.8 0
3.2 0.8 0
3.6 0.8 0
4 0.8 0
4.4 0.8 0
4.8 0.8 0
5.2 0.8 0
5.6 0.8 0
6 0.8 0
6.4 0.8 0
6.8 0.8 0
7.2 0.8 0
7.6 0.8 0
8 0.8 0
8.4 0.8 0
8.8 0.8 0
9.2 0.8 0
9.6 0.8 0
10 0.8 0
10.4 0.8 0
10.8 0.8 0
11.2 0.8 0
11.6 0.8 0
12 0.8 0
12.4 0.8 0
12.8 0.8 0
13.2 0.8 0
13.6 0.8 0
14 0.8 0
14.4 0.8 0
14.8 0.8 0
15.2 0.8 0
15.6 0.8 0
16 0.8 0
16.4 0.8 0
16.8 0.8 0
17.2 0.8 0
17.6 0.8 0
18 0.8 0
18.4 0.8 0
18.8 0.8 0
19.2 0.8 0
19.6 0.8 0
20 0.8 0
20.4 0.8 0
20.8 0.8 0
21.2 0.8 0
21.6 0.8 0
22 0.8 0
22.4 0.8 0
22.8 0.8 0
23.2 0.8 0
23.6 0.8 0
24 0.8 0
24.4 0.8 0
24.8 0.8 0
25.2 0.8 0
25.6 0.8 0
26 0.8 0
26.4 0.8 0
26.8 0.8 0
27.2 0.8 0
27.6 0.8 0
28 0.8 0
28.4 0.8 0
28.8 0.8 0
29.2 0.8 0
29.6 0.8 0
30 0.8 0
30.4 0.8 0
30.8 0.8 0
31.2 0.8 0
31.6 0.8 0
32 0.8 0
32.4 0.8 0
32.8 0.8 0
33.2 0.8 0
33.6 0.8 0
34 0.8 0
34.4 0.8 0
34.8 0.8 0
35.2 0.8 0
35.6 0.8 0
36 0.8 0
36.4 0.8 0
36.8 0.8 0
37.2 0.8 0
37.6 0.8 0
38 0.8 0
38.4 0.8 0
38.8 0.8 0
39.2 0.8 0
39.6 0.8 0
40 0.8 0
40.4 0.8 0
0 0.9 0
0.4 0.9 0
0.8 0.9 0
1.2 0.9 0
1.6 0.9 0
2 0.9 0
2.4 0.9 0
2.8 0.9 0
3.2 0.9 0
3.6 0.9 0
4 0.9 0
4.4 0.9 0
4.8 0.9 0
5.2 0.9 0
5.6 0.9 0
6 0.9 0
6.4 0.9 0
6.8 0.9 0
7.2 0.9 0
7.6 0.9 0
8 0.9 0
8.4 0.9 0
8.8 0.9 0
9.2 0.9 0
9.6 0.9 0
10 0.9 0
10.4 0.9 0
10.8 0.9 0
11.2 0.9 0
11.6 0.9 0
12 0.9 0
12.4 0.9 0
12.8 0.9 0
13.2 0.9 0
13.6 0.9 0
14 0.9 0
14.4 0.9 0
14.8 0.9 0
15.2 0.9 0
15.6 0.9 0
16 0.9 0
16.4 0.9 0
16.8 0.9 0
17.2 0.9 0
17.6 0.9 0
18 0.9 0
18.4 0.9 0
18.8 0.9 0
19.2 0.9 0
19.6 0.9 0
20 0.9 0
20.4 0.9 0
20.8 0.9 0
21.2 0.9 0
21.6 0.9 0
22 0.9 0
22.4 0.9 0
22.8 0.9 0
23.2 0.9 0
23.6 0.9 0
24 0.9 0
24.4 0.9 0
24.8 0.9 0
25.2 0.9 0
25.6 0.9 0
26 0.9 0
26.4 0.9 0
26.8 0.9 0
27.2 0.9 0
27.6 0.9 0
28 0.9 0
28.4 0.9 0
28.8 0.9 0
29.2 0.9 0
29.6 0.9 0
30 0.9 0
30.4 0.9 0
30.8 0.9 0
31.2 0.9 0
31.6 0.9 0
32 0.9 0
32.4 0.9 0
32.8 0.9 0
33.2 0.9 0
33.6 0.9 0
34 0.9 0
34.4 0.9 0
34.8 0.9 0
35.2 0.9 0
35.6 0.9 0
36 0.9 0
36.4 0.9 0
36.8 0.9 0
37.2 0.9 0
37.6 0.9 0
38 0.9 0
38.4 0.9 0
38.8 0.9 0
39.2 0.9 0
39.6 0.9 0
40 0.9 0
40.4 0.9 0
0 1 0
0.4 1 0
0.8 1 0
1.2 1 0
1.6 1 0
2 1 0
2.4 1 0
2.8 1 0
3.2 1 0
3.6 1 0
4 1 0
4.4 1 0
4.8 1 0
5.2 1 0
5.6 1 0
6 1 0
6.4 1 0
6.8 1 0
7.2 1 0
7.6 1 0
8 1 0
8.4 1 0
8.8 1 0
9.2 1 0
9.6 1 0
10 1 0
10.4 1 0
10.8 1 0
11.2 1 0
11.6 1 0
12 1 0
12.4 1 0
12.8 1 0
13.2 1 0
13.6 1 0
14 1 0
14.4 1 0
14.8 1 0
15.2 1 0
15.6 1 0
16 1 0
16.4 1 0
16.8 1 0
17.2 1 0
17.6 1 0
18 1 0
18.4 1 0
18.8 1 0
19.2 1 0
19.6 1 0
20 1 0
20.4 1 0
20.8 1 0
21.2 1 0
21.6 1 0
22 1 0
22.4 1 0
22.8 1 0
23.2 1 0
23.6 1 0
24 1 0
24.4 1 0
24.8 1 0
25.2 1 0
25.6 1 0
26 1 0
26.4 1 0
26.8 1 0
27.2 1 0
27.6 1 0
28 1 0
28.4 1 0
28.8 1 0
29.2 1 0
29.6 1 0
30 1 0
30.4 1 0
30.8 1 0
31.2 1 0
31.6 1 0
32 1 0
32.4 1 0
32.8 1 0
33.2 1 0
33.6 1 0
34 1 0
34.4 1 0
34.8 1 0
35.2 1 0
35.6 1 0
36 1 0
36.4 1 0
36.8 1 0
37.2 1 0
37.6 1 0
38 1 0
38.4 1 0
38.8 1 0
39.2 1 0
39.6 1 0
40 1 0
40.4 1 0
0 1.1 0
0.4 1.1 0
0.8 1.1 0
1.2 1.1 0
1.6 1.1 0
2 1.1 0
2.4 1.1 0
2.8 1.1 0
3.2 1.1 0
3.6 1.1 0
4 1.1 0
4.4 1.1 0
4.8 1.1 0
5.2 1.1 0
5.6 1.1 0
6 1.1 0
6.4 1.1 0
6.8 1.1 0
7.2 1.1 0
7.6 1.1 0
8 1.1 0
8.4 1.1 0
8.8 1.1 0
9.2 1.1 0
9.6 1.1 0
10 1.1 0
10.4 1.1 0
10.8 1.1 0
11.2 1.1 0
11.6 1.1 0
12 1.1 0
12.4 1.1 0
12.8 1.1 0
13.2 1.1 0
13.6 1.1 0
14 1.1 0
14.4 1.1 0
14.8 1.1 0
15.2 1.1 0
15.6 1.1 0
16 1.1 0
16.4 1.1 0
16.8 1.1 0
17.2 1.1 0
17.6 1.1 0
18 1.1 0
18.4 1.1 0
18.8 1.1 0
19.2 1.1 0
19.6 1.1 0
20 1.1 0
20.4 1.1 0
20.8 1.1 0
21.2 1.1 0
21.6 1.1 0
22 1.1 0
22.4 1.1 0
22.8 1.1 0
23.2 1.1 0
23.6 1.1 0
24 1.1 0
24.4 1.1 0
24.8 1.1 0
25.2 1.1 0
25.6 1.1 0
26 1.1 0
26.4 1.1 0
26.8 1.1 0
27.2 1.1 0
27.6 1.1 0
28 1.1 0
28.4 1.1 0
28.8 1.1 0
29.2 1.1 0
29.6 1.1 0
30 1.1 0
30.4 1.1 0
30.8 1.1 0
31.2 1.1 0
31.6 1.1 0
32 1.1 0
32.4 1.1 0
32.8 1.1 0
33.2 1.1 0
33.6 1.1 0
34 1.1 0
34.4 1.1 0
34.8 1.1 0
35.2 1.1 0
35.6 1.1 0
36 1.1 0
36.4 1.1 0
36.8 1.1 0
37.2 1.1 0
37.6 1.1 0
38 1.1 0
38.4 1.1 0
38.8 1.1 0
39.2 1.1 0
39.6 1.1 0
40 1.1 0
40.4 1.1 0

POINT_DATA 1224

SCALARS phi double
LOOKUP_TABLE default
0.912964
1.08704
1.19146
1.23396
1.1574
0.946975
0.680797
0.442623
0.266847
0.15121
0.0809328
0.0409569
0.019597
0.00886715
0.00379635
0.00153948
0.00059207
0.000216276
7.51569e-05
2.48861e-05
7.86443e-06
2.37559e-06
6.86932e-07
1.90417e-07
5.06675e-08
1.29577e-08
3.18874e-09
7.55942e-10
1.7282e-10
3.81393e-11
8.13264e-12
1.67711e-12
3.34756e-13
6.47266e-14
1.21326e-14
2.20628e-15
3.89493e-16
6.67965e-17
1.11352e-17
1.80545e-18
2.84882e-19
4.37695e-20
6.55134e-21
9.5577e-22
1.35971e-22
1.88715e-23
2.55635e-24
3.38118e-25
4.36841e-26
5.51505e-27
6.80623e-28
8.21387e-29
9.69658e-30
1.12011e-30
1.26652e-31
1.40216e-32
1.52037e-33
1.61504e-34
1.68121e-35
1.71543e-36
1.71612e-37
1.68365e-38
1.62027e-39
1.52986e-40
1.41755e-41
1.28925e-42
1.15118e-43
1.00934e-44
8.69173e-46
7.35237e-47
6.11055e-48
4.99045e-49
4.00572e-50
3.16062e-51
2.45179e-52
1.87018e-53
1.40293e-54
1.03515e-55
7.51357e-57
5.36569e-58
3.7705e-59
2.60749e-60
1.7748e-61
1.18914e-62
7.84382e-64
5.09424e-65
3.25791e-66
2.05189e-67
1.27283e-68
7.77734e-70
4.68147e-71
2.77629e-72
1.62227e-73
9.34114e-75
5.30122e-76
2.96517e-77
1.63829e-78
8.90938e-80
4.95995e-81
2.62426e-82
2.11932e-83
2.11932e-83
0.912964
1.08704
1.19146
1.23396
1.1574
0.946975
0.680797
0.442623
0.266847
0.15121
0.0809328
0.0409569
0.019597
0.00886715
0.00379635
0.00153948
0.00059207
0.000216276
7.51569e-05
2.48861e-05
7.86443e-06
2.37559e-06
6.86932e-07
1.90417e-07
5.06675e-08
1.29577e-08
3.18874e-09
7.55942e-10
1.7282e-10
3.81393e-11
8.13264e-12
1.67711e-12
3.34756e-13
6.47266e-14
1.21326e-14
2.20628e-15
3.89493e-16
6.67965e-17
1.11352e-17
1.80545e-18
2.84882e-19
4.37695e-20
6.55134e-21
9.5577e-22
1.35971e-22
1.88715e-23
2.55635e-24
3.38118e-25
4.36841e-26
5.51505e-27
6.80623e-28
8.21387e-29
9.69658e-30
1.12011e-30
1.26652e-31
1.40216e-32
1.52037e-33
1.61504e-34
1.68121e-35
1.71543e-36
1.71612e-37
1.68365e-38
1.62027e-39
1.52986e-40
1.41755e-41
1.28925e-42
1.15118e-43
1.00934e-44
8.69173e-46
7.35237e-47
6.11055e-48
4.99045e-49
4.00572e-50
3.16062e-51
2.45179e-52
1.87018e-53
1.40293e-54
1.03515e-55
7.51357e-57
5.36569e-58
3.7705e-59
2.60749e-60
1.7748e-61
1.18914e-62
7.84382e-64
5.09424e-65
3.25791e-66
2.05189e-67
1.27283e-68
7.77734e-70
4.68147e-71
2.77629e-72
1.62227e-73
9.34114e-75
5.30122e-76
2.96517e-77
1.63829e-78
8.90938e-80
4.95995e-81
2.62426e-82
2.11932e-83
2.11932e-83
1.00259
0.997414
1.02756
1.07183
1.08132
1.01066
0.860392
0.668417
0.477532
0.315959
0.194559
0.111844
0.0601491
0.0303156
0.0143447
0.00638447
0.0026783
0.00106125
0.000398054
0.000141628
4.78989e-05
1.54284e-05
4.74167e-06
1.39284e-06
3.91681e-07
1.05602e-07
2.73357e-08
6.80262e-09
1.62944e-09
3.76114e-10
8.37499e-11
1.80083e-11
3.74285e-12
7.52593e-13
1.46527e-13
2.76452e-14
5.05826e-15
8.98198e-16
1.54892e-16
2.59571e-17
4.22978e-18
6.7061e-19
1.03504e-19
1.55599e-20
2.2795e-21
3.25588e-22
4.53622e-23
6.16747e-24
8.1864e-25
1.06127e-25
1.34425e-26
1.66422e-27
2.01455e-28
2.38522e-29
2.76317e-30
3.13295e-31
3.47774e-32
3.78065e-33
4.02611e-34
4.2012e-35
4.29678e-36
4.3083e-37
4.23612e-38
4.08538e-39
3.86544e-40
3.5889e-41
3.27051e-42
2.92583e-43
2.57009e-44
2.21718e-45
1.87881e-46
1.56415e-47
1.27956e-48
1.02874e-49
8.12982e-51
6.31627e-52
4.82515e-53
3.62491e-54
2.67845e-55
1.94684e-56
1.39219e-57
9.79593e-59
6.78312e-60
4.62279e-61
3.10115e-62
2.04804e-63
1.33168e-64
8.52627e-66
5.37602e-67
3.33851e-68
2.04211e-69
1.23051e-70
7.3049e-72
4.27275e-73
2.46279e-74
1.39887e-75
7.83893e-77
4.32444e-78
2.39292e-79
1.27923e-80
8.30546e-82
8.30546e-82
1.01598
0.984015
0.963104
0.963862
0.9699
0.950203
0.882015
0.764174
0.614131
0.456949
0.314802
0.201009
0.119159
0.0657218
0.0338096
0.0162663
0.00733934
0.00311416
0.00124595
0.000471248
0.000168899
5.74932e-05
1.86263e-05
5.75445e-06
1.69838e-06
4.79673e-07
1.29842e-07
3.3734e-08
8.42355e-09
2.02414e-09
4.68617e-10
1.04642e-10
2.25606e-11
4.70086e-12
9.47508e-13
1.84903e-13
3.49631e-14
6.41091e-15
1.14074e-15
1.97112e-16
3.30964e-17
5.40331e-18
8.58237e-19
1.32699e-19
1.99835e-20
2.93254e-21
4.1956e-22
5.85495e-23
7.97306e-24
1.05995e-24
1.37619e-25
1.74573e-26
2.16442e-27
2.62378e-28
3.11089e-29
3.60876e-30
4.09719e-31
4.55407e-32
4.95711e-33
5.28562e-34
5.5223e-35
5.65478e-36
5.67667e-37
5.58805e-38
5.39534e-39
5.11056e-40
4.75013e-41
4.33334e-42
3.8807e-43
3.41237e-44
2.94674e-45
2.4995e-46
2.08288e-47
1.70551e-48
1.37246e-49
1.08559e-50
8.44172e-52
6.45441e-53
4.853e-54
3.58885e-55
2.61069e-56
1.86839e-57
1.31569e-58
9.11732e-60
6.21821e-61
4.17447e-62
2.75884e-63
1.79511e-64
1.15013e-65
7.25672e-67
4.50938e-68
2.76009e-69
1.66419e-70
9.88551e-72
5.78573e-73
3.33658e-74
1.89673e-75
1.0618e-76
5.88762e-78
3.17626e-79
1.79675e-80
1.79675e-80
1.02411
0.975888
0.918678
0.878707
0.855774
0.833664
0.791357
0.715589
0.607273
0.479638
0.351171
0.238035
0.149447
0.0870516
0.0471585
0.0238277
0.0112634
0.00499636
0.00208599
0.000821971
0.000306486
0.000108396
3.64445e-05
1.16721e-05
3.56767e-06
1.04255e-06
2.91738e-07
7.82929e-08
2.01788e-08
5.00129e-09
1.19347e-09
2.74523e-10
6.09326e-11
1.30636e-11
2.70786e-12
5.43161e-13
1.0552e-13
1.98694e-14
3.62916e-15
6.43438e-16
1.1081e-16
1.8548e-17
3.01943e-18
4.78314e-19
7.37733e-20
1.10843e-20
1.62315e-21
2.31769e-22
3.22845e-23
4.389e-24
5.82573e-25
7.55302e-26
9.56846e-27
1.18488e-27
1.43472e-28
1.69931e-29
1.96937e-30
2.23393e-31
2.48101e-32
2.69855e-33
2.87539e-34
3.00223e-35
3.07246e-36
3.08269e-37
3.03307e-38
2.92714e-39
2.77148e-40
2.57504e-41
2.34828e-42
2.10232e-43
1.84807e-44
1.59547e-45
1.35298e-46
1.12722e-47
9.2281e-49
7.42466e-50
5.87183e-51
4.56532e-52
3.4901e-53
2.62384e-54
1.94015e-55
1.41121e-56
1.00987e-57
7.11077e-59
4.9272e-60
3.36025e-61
2.25571e-62
1.49069e-63
9.69922e-65
6.21408e-66
3.92064e-67
2.43626e-68
1.49115e-69
8.99069e-71
5.3405e-72
3.12548e-73
1.80237e-74
1.02366e-75
5.73072e-77
3.12844e-78
1.68506e-79
1.68506e-79
1.11555
0.884455
0.754414
0.683326
0.646254
0.62336
0.595627
0.548793
0.478135
0.389203
0.294083
0.205688
0.133115
0.0798096
0.0444313
0.0230352
0.011157
0.00506475
0.00216162
0.000869928
0.000331013
0.000119384
4.09053e-05
1.33431e-05
4.1516e-06
1.23434e-06
3.51262e-07
9.58244e-08
2.50952e-08
6.31767e-09
1.53079e-09
3.57417e-10
8.05027e-11
1.75093e-11
3.68103e-12
7.48695e-13
1.47451e-13
2.81417e-14
5.20883e-15
9.35691e-16
1.63239e-16
2.76754e-17
4.56259e-18
7.31861e-19
1.14284e-19
1.73827e-20
2.57654e-21
3.72355e-22
5.249e-23
7.2208e-24
9.69767e-25
1.27203e-25
1.63021e-26
2.04204e-27
2.50102e-28
2.99605e-29
3.51158e-30
4.02823e-31
4.52395e-32
4.97553e-33
5.36045e-34
5.65876e-35
5.85482e-36
5.93866e-37
5.90679e-38
5.76242e-39
5.51504e-40
5.17939e-41
4.77404e-42
4.31978e-43
3.83789e-44
3.34858e-45
2.86979e-46
2.41623e-47
1.99895e-48
1.62523e-49
1.29882e-50
1.02041e-51
7.88243e-53
5.98783e-54
4.4737e-55
3.28787e-56
2.37724e-57
1.69122e-58
1.18401e-59
8.1581e-61
5.53297e-62
3.69415e-63
2.42833e-64
1.57177e-65
1.00186e-66
6.28932e-68
3.88891e-69
2.36878e-70
1.42145e-71
8.40402e-73
4.89524e-74
2.80888e-75
1.58603e-76
8.74597e-78
4.67087e-79
4.67087e-79
-0.101674
0.101674
0.203824
0.258917
0.292824
0.314222
0.322053
0.312265
0.283261
0.238427
0.185335
0.132787
0.0877086
0.0535044
0.0302284
0.0158704
0.00777086
0.00356128
0.00153274
0.000621466
0.000238067
8.63867e-05
2.97641e-05
9.75847e-06
3.05055e-06
9.10917e-07
2.60268e-07
7.12668e-08
1.87289e-08
4.73029e-09
1.14965e-09
2.69189e-10
6.07926e-11
1.32555e-11
2.7933e-12
5.69397e-13
1.12374e-13
2.14892e-14
3.98489e-15
7.17082e-16
1.25308e-16
2.12778e-17
3.51304e-18
5.64294e-19
8.82339e-20
1.34371e-20
1.99404e-21
2.88493e-22
4.07105e-23
5.60587e-24
7.53576e-25
9.89316e-26
1.26892e-26
1.59071e-27
1.94964e-28
2.33711e-29
2.74097e-30
3.14607e-31
3.53514e-32
3.88995e-33
4.1928e-34
4.42799e-35
4.58316e-36
4.65039e-37
4.62687e-38
4.51503e-39
4.32224e-40
4.06002e-41
3.74294e-42
3.38727e-43
3.00974e-44
2.62624e-45
2.25085e-46
1.89515e-47
1.56785e-48
1.27469e-49
1.01862e-50
8.00197e-52
6.1806e-53
4.69437e-54
3.50672e-55
2.5767e-56
1.86263e-57
1.32479e-58
9.27214e-60
6.38682e-61
4.33026e-62
2.89014e-63
1.89911e-64
1.22874e-65
7.82876e-67
4.91245e-68
3.03612e-69
1.84843e-70
1.10862e-71
6.55097e-73
3.81371e-74
2.18702e-75
1.23415e-76
6.80126e-78
3.63029e-79
3.63029e-79
-0.00930614
0.00930614
0.0398211
0.0694499
0.095776
0.11766
0.132601
0.137561
0.130971
0.1141
0.0908379
0.0661287
0.0441164
0.0270605
0.0153223
0.00804274
0.00393012
0.00179501
0.000769113
0.000310197
0.000118122
4.2585e-05
1.45713e-05
4.74284e-06
1.47153e-06
4.36026e-07
1.23601e-07
3.35734e-08
8.75145e-09
2.19217e-09
5.28368e-10
1.22684e-10
2.74736e-11
5.93983e-12
1.24106e-12
2.50824e-13
4.90777e-14
9.30451e-15
1.71054e-15
3.05154e-16
5.2863e-17
8.89851e-18
1.45641e-18
2.31905e-19
3.5945e-20
5.42625e-21
7.9821e-22
1.14472e-22
1.60122e-23
2.18555e-24
2.91217e-25
3.78958e-26
4.81787e-27
5.98647e-28
7.27265e-29
8.64111e-30
1.00449e-30
1.14277e-31
1.27275e-32
1.3881e-33
1.48293e-34
1.55224e-35
1.5924e-36
1.60143e-37
1.57918e-38
1.52732e-39
1.44911e-40
1.34908e-41
1.23265e-42
1.10558e-43
9.73594e-45
8.41955e-46
7.15162e-47
5.96764e-48
4.89283e-49
3.94232e-50
3.12212e-51
2.43065e-52
1.86054e-53
1.40044e-54
1.03673e-55
7.54918e-57
5.40792e-58
3.81166e-59
2.64369e-60
1.80456e-61
1.21242e-62
8.01876e-64
5.22137e-65
3.3476e-66
2.1135e-67
1.31413e-68
8.04802e-70
4.85506e-71
2.88535e-72
1.68939e-73
9.74636e-75
5.53758e-76
3.10191e-77
1.69378e-78
9.1608e-80
9.1608e-80
-0.000483361
0.000483361
0.00620253
0.0149064
0.0253643
0.0361678
0.0452162
0.050233
0.049852
0.044367
0.0355631
0.0258036
0.0170408
0.0103015
0.00573223
0.00295157
0.00141317
0.000631919
0.000264956
0.000104537
3.89342e-05
1.37275e-05
4.59378e-06
1.46242e-06
4.43829e-07
1.28657e-07
3.56858e-08
9.48639e-09
2.42049e-09
5.93612e-10
1.40107e-10
3.18636e-11
6.99026e-12
1.48085e-12
3.0323e-13
6.00727e-14
1.1524e-14
2.14242e-15
3.86291e-16
6.76004e-17
1.14897e-17
1.8979e-18
3.04869e-19
4.76522e-20
7.25144e-21
1.0749e-21
1.55287e-22
2.18744e-23
3.00584e-24
4.03107e-25
5.27813e-26
6.75027e-27
8.43549e-28
1.03041e-28
1.23075e-29
1.43795e-30
1.64388e-31
1.83944e-32
2.01523e-33
2.16228e-34
2.27284e-35
2.34107e-36
2.36353e-37
2.33947e-38
2.27086e-39
2.16213e-40
2.01971e-41
1.85144e-42
1.66584e-43
1.47146e-44
1.27627e-45
1.08718e-46
9.09706e-48
7.47864e-49
6.04145e-50
4.79656e-51
3.74336e-52
2.87213e-53
2.16682e-54
1.60763e-55
1.17316e-56
8.42158e-58
5.94782e-59
4.1334e-60
2.82682e-61
1.90276e-62
1.26073e-63
8.2235e-65
5.28134e-66
3.33988e-67
2.08e-68
1.27582e-69
7.70823e-71
4.58776e-72
2.69015e-73
1.55419e-74
8.85064e-76
4.96276e-77
2.75797e-78
1.48969e-79
8.51198e-81
8.51198e-81
4.1413e-05
-4.1413e-05
0.00077978
0.00290741
0.00642191
0.0107302
0.0146042
0.0167798
0.0166458
0.0144944
0.011224
0.00781333
0.00493409
0.00284868
0.00151384
0.000744857
0.000341088
0.000146028
5.86851e-05
2.22169e-05
7.94833e-06
2.69484e-06
8.68074e-07
2.66279e-07
7.79421e-08
2.18113e-08
5.84536e-09
1.50262e-09
3.71046e-10
8.81318e-11
2.01608e-11
4.44691e-12
9.46798e-13
1.9478e-13
3.87557e-14
7.4648e-15
1.39302e-15
2.52055e-16
4.42547e-17
7.54492e-18
1.24989e-18
2.0132e-19
3.1547e-20
4.8121e-21
7.14911e-22
1.03499e-22
1.46081e-23
2.01112e-24
2.70182e-25
3.54355e-26
4.53901e-27
5.6806e-28
6.94866e-29
8.3107e-30
9.72198e-31
1.11275e-31
1.24652e-32
1.3671e-33
1.46834e-34
1.54489e-35
1.59271e-36
1.60938e-37
1.5943e-38
1.54874e-39
1.47567e-40
1.37944e-41
1.26535e-42
1.13922e-43
1.00689e-44
8.73827e-46
7.44763e-47
6.23508e-48
5.12834e-49
4.14474e-50
3.29215e-51
2.57036e-52
1.97292e-53
1.489e-54
1.10514e-55
8.06743e-57
5.79315e-58
4.09274e-59
2.84507e-60
1.94628e-61
1.31041e-62
8.68469e-64
5.66624e-65
3.63983e-66
2.3023e-67
1.43412e-68
8.79825e-70
5.31669e-71
3.16493e-72
1.85613e-73
1.0726e-74
6.10735e-76
3.43071e-77
1.89681e-78
1.05288e-79
5.63599e-81
3.71085e-82
3.71085e-82
2.47017e-05
-2.47017e-05
9.92312e-05
0.000920087
0.00259017
0.00452992
0.00592216
0.0062982
0.00570057
0.0045111
0.00317758
0.00201855
0.00116818
0.000620934
0.00030519
0.000139491
5.95768e-05
2.38777e-05
9.01347e-06
3.21503e-06
1.08674e-06
3.49008e-07
1.06737e-07
3.11513e-08
8.69245e-09
2.32307e-09
5.95563e-10
1.4668e-10
3.47518e-11
7.93032e-12
1.74508e-12
3.70699e-13
7.60938e-14
1.51082e-14
2.90399e-15
5.40834e-16
9.76698e-17
1.71162e-17
2.91281e-18
4.81683e-19
7.74516e-20
1.21166e-20
1.84524e-21
2.73709e-22
3.95647e-23
5.57601e-24
7.66547e-25
1.02837e-25
1.3469e-26
1.72297e-27
2.15351e-28
2.63089e-29
3.14271e-30
3.67196e-31
4.19787e-32
4.69716e-33
5.14576e-34
5.52077e-35
5.80241e-36
5.97577e-37
6.03213e-38
5.96965e-39
5.79342e-40
5.51482e-41
5.15035e-42
4.72007e-43
4.24577e-44
3.74932e-45
3.25104e-46
2.76853e-47
2.31588e-48
1.90326e-49
1.53701e-50
1.21989e-51
9.51707e-53
7.29953e-54
5.50506e-55
4.08291e-56
2.9784e-57
2.13728e-58
1.50891e-59
1.04822e-60
7.16605e-62
4.82172e-63
3.19354e-64
2.0823e-65
1.33679e-66
8.45048e-68
5.26074e-69
3.22556e-70
1.94805e-71
1.15898e-72
6.7933e-74
3.92332e-75
2.23296e-76
1.25244e-77
6.93879e-79
3.78292e-80
2.11325e-81
1.11934e-82
9.18395e-84
9.18395e-84
2.47017e-05
-2.47017e-05
9.92312e-05
0.000920087
0.00259017
0.00452992
0.00592216
0.0062982
0.00570057
0.0045111
0.00317758
0.00201855
0.00116818
0.000620934
0.00030519
0.000139491
5.95768e-05
2.38777e-05
9.01347e-06
3.21503e-06
1.08674e-06
3.49008e-07
1.06737e-07
3.11513e-08
8.69245e-09
2.32307e-09
5.95563e-10
1.4668e-10
3.47518e-11
7.93032e-12
1.74508e-12
3.70699e-13
7.60938e-14
1.51082e-14
2.90399e-15
5.40834e-16
9.76698e-17
1.71162e-17
2.91281e-18
4.81683e-19
7.74516e-20
1.21166e-20
1.84524e-21
2.73709e-22
3.95647e-23
5.57601e-24
7.66547e-25
1.02837e-25
1.3469e-26
1.72297e-27
2.15351e-28
2.63089e-29
3.14271e-30
3.67196e-31
4.19787e-32
4.69716e-33
5.14576e-34
5.52077e-35
5.80241e-36
5.97577e-37
6.03213e-38
5.96965e-39
5.79342e-40
5.51482e-41
5.15035e-42
4.72007e-43
4.24577e-44
3.74932e-45
3.25104e-46
2.76853e-47
2.31588e-48
1.90326e-49
1.53701e-50
1.21989e-51
9.51707e-53
7.29953e-54
5.50506e-55
4.08291e-56
2.9784e-57
2.13728e-58
1.50891e-59
1.04822e-60
7.16605e-62
4.82172e-63
3.19354e-64
2.0823e-65
1.33679e-66
8.45048e-68
5.26074e-69
3.22556e-70
1.94805e-71
1.15898e-72
6.7933e-74
3.92332e-75
2.23296e-76
1.25244e-77
6.93879e-79
3.78292e-80
2.11325e-81
1.11934e-82
9.18395e-84
9.18395e-84
