# vtk DataFile Version 2.0
FlowField
ASCII
DATASET STRUCTURED_GRID
DIMENSIONS 102 12 1 
POINTS 1224 double
0 0 0
0.3 0 0
0.6 0 0
0.9 0 0
1.2 0 0
1.5 0 0
1.8 0 0
2.1 0 0
2.4 0 0
2.7 0 0
3 0 0
3.3 0 0
3.6 0 0
3.9 0 0
4.2 0 0
4.5 0 0
4.8 0 0
5.1 0 0
5.4 0 0
5.7 0 0
6 0 0
6.3 0 0
6.6 0 0
6.9 0 0
7.2 0 0
7.5 0 0
7.8 0 0
8.1 0 0
8.4 0 0
8.7 0 0
9 0 0
9.3 0 0
9.6 0 0
9.9 0 0
10.2 0 0
10.5 0 0
10.8 0 0
11.1 0 0
11.4 0 0
11.7 0 0
12 0 0
12.3 0 0
12.6 0 0
12.9 0 0
13.2 0 0
13.5 0 0
13.8 0 0
14.1 0 0
14.4 0 0
14.7 0 0
15 0 0
15.3 0 0
15.6 0 0
15.9 0 0
16.2 0 0
16.5 0 0
16.8 0 0
17.1 0 0
17.4 0 0
17.7 0 0
18 0 0
18.3 0 0
18.6 0 0
18.9 0 0
19.2 0 0
19.5 0 0
19.8 0 0
20.1 0 0
20.4 0 0
20.7 0 0
21 0 0
21.3 0 0
21.6 0 0
21.9 0 0
22.2 0 0
22.5 0 0
22.8 0 0
23.1 0 0
23.4 0 0
23.7 0 0
24 0 0
24.3 0 0
24.6 0 0
24.9 0 0
25.2 0 0
25.5 0 0
25.8 0 0
26.1 0 0
26.4 0 0
26.7 0 0
27 0 0
27.3 0 0
27.6 0 0
27.9 0 0
28.2 0 0
28.5 0 0
28.8 0 0
29.1 0 0
29.4 0 0
29.7 0 0
30 0 0
30.3 0 0
0 0.1 0
0.3 0.1 0
0.6 0.1 0
0.9 0.1 0
1.2 0.1 0
1.5 0.1 0
1.8 0.1 0
2.1 0.1 0
2.4 0.1 0
2.7 0.1 0
3 0.1 0
3.3 0.1 0
3.6 0.1 0
3.9 0.1 0
4.2 0.1 0
4.5 0.1 0
4.8 0.1 0
5.1 0.1 0
5.4 0.1 0
5.7 0.1 0
6 0.1 0
6.3 0.1 0
6.6 0.1 0
6.9 0.1 0
7.2 0.1 0
7.5 0.1 0
7.8 0.1 0
8.1 0.1 0
8.4 0.1 0
8.7 0.1 0
9 0.1 0
9.3 0.1 0
9.6 0.1 0
9.9 0.1 0
10.2 0.1 0
10.5 0.1 0
10.8 0.1 0
11.1 0.1 0
11.4 0.1 0
11.7 0.1 0
12 0.1 0
12.3 0.1 0
12.6 0.1 0
12.9 0.1 0
13.2 0.1 0
13.5 0.1 0
13.8 0.1 0
14.1 0.1 0
14.4 0.1 0
14.7 0.1 0
15 0.1 0
15.3 0.1 0
15.6 0.1 0
15.9 0.1 0
16.2 0.1 0
16.5 0.1 0
16.8 0.1 0
17.1 0.1 0
17.4 0.1 0
17.7 0.1 0
18 0.1 0
18.3 0.1 0
18.6 0.1 0
18.9 0.1 0
19.2 0.1 0
19.5 0.1 0
19.8 0.1 0
20.1 0.1 0
20.4 0.1 0
20.7 0.1 0
21 0.1 0
21.3 0.1 0
21.6 0.1 0
21.9 0.1 0
22.2 0.1 0
22.5 0.1 0
22.8 0.1 0
23.1 0.1 0
23.4 0.1 0
23.7 0.1 0
24 0.1 0
24.3 0.1 0
24.6 0.1 0
24.9 0.1 0
25.2 0.1 0
25.5 0.1 0
25.8 0.1 0
26.1 0.1 0
26.4 0.1 0
26.7 0.1 0
27 0.1 0
27.3 0.1 0
27.6 0.1 0
27.9 0.1 0
28.2 0.1 0
28.5 0.1 0
28.8 0.1 0
29.1 0.1 0
29.4 0.1 0
29.7 0.1 0
30 0.1 0
30.3 0.1 0
0 0.2 0
0.3 0.2 0
0.6 0.2 0
0.9 0.2 0
1.2 0.2 0
1.5 0.2 0
1.8 0.2 0
2.1 0.2 0
2.4 0.2 0
2.7 0.2 0
3 0.2 0
3.3 0.2 0
3.6 0.2 0
3.9 0.2 0
4.2 0.2 0
4.5 0.2 0
4.8 0.2 0
5.1 0.2 0
5.4 0.2 0
5.7 0.2 0
6 0.2 0
6.3 0.2 0
6.6 0.2 0
6.9 0.2 0
7.2 0.2 0
7.5 0.2 0
7.8 0.2 0
8.1 0.2 0
8.4 0.2 0
8.7 0.2 0
9 0.2 0
9.3 0.2 0
9.6 0.2 0
9.9 0.2 0
10.2 0.2 0
10.5 0.2 0
10.8 0.2 0
11.1 0.2 0
11.4 0.2 0
11.7 0.2 0
12 0.2 0
12.3 0.2 0
12.6 0.2 0
12.9 0.2 0
13.2 0.2 0
13.5 0.2 0
13.8 0.2 0
14.1 0.2 0
14.4 0.2 0
14.7 0.2 0
15 0.2 0
15.3 0.2 0
15.6 0.2 0
15.9 0.2 0
16.2 0.2 0
16.5 0.2 0
16.8 0.2 0
17.1 0.2 0
17.4 0.2 0
17.7 0.2 0
18 0.2 0
18.3 0.2 0
18.6 0.2 0
18.9 0.2 0
19.2 0.2 0
19.5 0.2 0
19.8 0.2 0
20.1 0.2 0
20.4 0.2 0
20.7 0.2 0
21 0.2 0
21.3 0.2 0
21.6 0.2 0
21.9 0.2 0
22.2 0.2 0
22.5 0.2 0
22.8 0.2 0
23.1 0.2 0
23.4 0.2 0
23.7 0.2 0
24 0.2 0
24.3 0.2 0
24.6 0.2 0
24.9 0.2 0
25.2 0.2 0
25.5 0.2 0
25.8 0.2 0
26.1 0.2 0
26.4 0.2 0
26.7 0.2 0
27 0.2 0
27.3 0.2 0
27.6 0.2 0
27.9 0.2 0
28.2 0.2 0
28.5 0.2 0
28.8 0.2 0
29.1 0.2 0
29.4 0.2 0
29.7 0.2 0
30 0.2 0
30.3 0.2 0
0 0.3 0
0.3 0.3 0
0.6 0.3 0
0.9 0.3 0
1.2 0.3 0
1.5 0.3 0
1.8 0.3 0
2.1 0.3 0
2.4 0.3 0
2.7 0.3 0
3 0.3 0
3.3 0.3 0
3.6 0.3 0
3.9 0.3 0
4.2 0.3 0
4.5 0.3 0
4.8 0.3 0
5.1 0.3 0
5.4 0.3 0
5.7 0.3 0
6 0.3 0
6.3 0.3 0
6.6 0.3 0
6.9 0.3 0
7.2 0.3 0
7.5 0.3 0
7.8 0.3 0
8.1 0.3 0
8.4 0.3 0
8.7 0.3 0
9 0.3 0
9.3 0.3 0
9.6 0.3 0
9.9 0.3 0
10.2 0.3 0
10.5 0.3 0
10.8 0.3 0
11.1 0.3 0
11.4 0.3 0
11.7 0.3 0
12 0.3 0
12.3 0.3 0
12.6 0.3 0
12.9 0.3 0
13.2 0.3 0
13.5 0.3 0
13.8 0.3 0
14.1 0.3 0
14.4 0.3 0
14.7 0.3 0
15 0.3 0
15.3 0.3 0
15.6 0.3 0
15.9 0.3 0
16.2 0.3 0
16.5 0.3 0
16.8 0.3 0
17.1 0.3 0
17.4 0.3 0
17.7 0.3 0
18 0.3 0
18.3 0.3 0
18.6 0.3 0
18.9 0.3 0
19.2 0.3 0
19.5 0.3 0
19.8 0.3 0
20.1 0.3 0
20.4 0.3 0
20.7 0.3 0
21 0.3 0
21.3 0.3 0
21.6 0.3 0
21.9 0.3 0
22.2 0.3 0
22.5 0.3 0
22.8 0.3 0
23.1 0.3 0
23.4 0.3 0
23.7 0.3 0
24 0.3 0
24.3 0.3 0
24.6 0.3 0
24.9 0.3 0
25.2 0.3 0
25.5 0.3 0
25.8 0.3 0
26.1 0.3 0
26.4 0.3 0
26.7 0.3 0
27 0.3 0
27.3 0.3 0
27.6 0.3 0
27.9 0.3 0
28.2 0.3 0
28.5 0.3 0
28.8 0.3 0
29.1 0.3 0
29.4 0.3 0
29.7 0.3 0
30 0.3 0
30.3 0.3 0
0 0.4 0
0.3 0.4 0
0.6 0.4 0
0.9 0.4 0
1.2 0.4 0
1.5 0.4 0
1.8 0.4 0
2.1 0.4 0
2.4 0.4 0
2.7 0.4 0
3 0.4 0
3.3 0.4 0
3.6 0.4 0
3.9 0.4 0
4.2 0.4 0
4.5 0.4 0
4.8 0.4 0
5.1 0.4 0
5.4 0.4 0
5.7 0.4 0
6 0.4 0
6.3 0.4 0
6.6 0.4 0
6.9 0.4 0
7.2 0.4 0
7.5 0.4 0
7.8 0.4 0
8.1 0.4 0
8.4 0.4 0
8.7 0.4 0
9 0.4 0
9.3 0.4 0
9.6 0.4 0
9.9 0.4 0
10.2 0.4 0
10.5 0.4 0
10.8 0.4 0
11.1 0.4 0
11.4 0.4 0
11.7 0.4 0
12 0.4 0
12.3 0.4 0
12.6 0.4 0
12.9 0.4 0
13.2 0.4 0
13.5 0.4 0
13.8 0.4 0
14.1 0.4 0
14.4 0.4 0
14.7 0.4 0
15 0.4 0
15.3 0.4 0
15.6 0.4 0
15.9 0.4 0
16.2 0.4 0
16.5 0.4 0
16.8 0.4 0
17.1 0.4 0
17.4 0.4 0
17.7 0.4 0
18 0.4 0
18.3 0.4 0
18.6 0.4 0
18.9 0.4 0
19.2 0.4 0
19.5 0.4 0
19.8 0.4 0
20.1 0.4 0
20.4 0.4 0
20.7 0.4 0
21 0.4 0
21.3 0.4 0
21.6 0.4 0
21.9 0.4 0
22.2 0.4 0
22.5 0.4 0
22.8 0.4 0
23.1 0.4 0
23.4 0.4 0
23.7 0.4 0
24 0.4 0
24.3 0.4 0
24.6 0.4 0
24.9 0.4 0
25.2 0.4 0
25.5 0.4 0
25.8 0.4 0
26.1 0.4 0
26.4 0.4 0
26.7 0.4 0
27 0.4 0
27.3 0.4 0
27.6 0.4 0
27.9 0.4 0
28.2 0.4 0
28.5 0.4 0
28.8 0.4 0
29.1 0.4 0
29.4 0.4 0
29.7 0.4 0
30 0.4 0
30.3 0.4 0
0 0.5 0
0.3 0.5 0
0.6 0.5 0
0.9 0.5 0
1.2 0.5 0
1.5 0.5 0
1.8 0.5 0
2.1 0.5 0
2.4 0.5 0
2.7 0.5 0
3 0.5 0
3.3 0.5 0
3.6 0.5 0
3.9 0.5 0
4.2 0.5 0
4.5 0.5 0
4.8 0.5 0
5.1 0.5 0
5.4 0.5 0
5.7 0.5 0
6 0.5 0
6.3 0.5 0
6.6 0.5 0
6.9 0.5 0
7.2 0.5 0
7.5 0.5 0
7.8 0.5 0
8.1 0.5 0
8.4 0.5 0
8.7 0.5 0
9 0.5 0
9.3 0.5 0
9.6 0.5 0
9.9 0.5 0
10.2 0.5 0
10.5 0.5 0
10.8 0.5 0
11.1 0.5 0
11.4 0.5 0
11.7 0.5 0
12 0.5 0
12.3 0.5 0
12.6 0.5 0
12.9 0.5 0
13.2 0.5 0
13.5 0.5 0
13.8 0.5 0
14.1 0.5 0
14.4 0.5 0
14.7 0.5 0
15 0.5 0
15.3 0.5 0
15.6 0.5 0
15.9 0.5 0
16.2 0.5 0
16.5 0.5 0
16.8 0.5 0
17.1 0.5 0
17.4 0.5 0
17.7 0.5 0
18 0.5 0
18.3 0.5 0
18.6 0.5 0
18.9 0.5 0
19.2 0.5 0
19.5 0.5 0
19.8 0.5 0
20.1 0.5 0
20.4 0.5 0
20.7 0.5 0
21 0.5 0
21.3 0.5 0
21.6 0.5 0
21.9 0.5 0
22.2 0.5 0
22.5 0.5 0
22.8 0.5 0
23.1 0.5 0
23.4 0.5 0
23.7 0.5 0
24 0.5 0
24.3 0.5 0
24.6 0.5 0
24.9 0.5 0
25.2 0.5 0
25.5 0.5 0
25.8 0.5 0
26.1 0.5 0
26.4 0.5 0
26.7 0.5 0
27 0.5 0
27.3 0.5 0
27.6 0.5 0
27.9 0.5 0
28.2 0.5 0
28.5 0.5 0
28.8 0.5 0
29.1 0.5 0
29.4 0.5 0
29.7 0.5 0
30 0.5 0
30.3 0.5 0
0 0.6 0
0.3 0.6 0
0.6 0.6 0
0.9 0.6 0
1.2 0.6 0
1.5 0.6 0
1.8 0.6 0
2.1 0.6 0
2.4 0.6 0
2.7 0.6 0
3 0.6 0
3.3 0.6 0
3.6 0.6 0
3.9 0.6 0
4.2 0.6 0
4.5 0.6 0
4.8 0.6 0
5.1 0.6 0
5.4 0.6 0
5.7 0.6 0
6 0.6 0
6.3 0.6 0
6.6 0.6 0
6.9 0.6 0
7.2 0.6 0
7.5 0.6 0
7.8 0.6 0
8.1 0.6 0
8.4 0.6 0
8.7 0.6 0
9 0.6 0
9.3 0.6 0
9.6 0.6 0
9.9 0.6 0
10.2 0.6 0
10.5 0.6 0
10.8 0.6 0
11.1 0.6 0
11.4 0.6 0
11.7 0.6 0
12 0.6 0
12.3 0.6 0
12.6 0.6 0
12.9 0.6 0
13.2 0.6 0
13.5 0.6 0
13.8 0.6 0
14.1 0.6 0
14.4 0.6 0
14.7 0.6 0
15 0.6 0
15.3 0.6 0
15.6 0.6 0
15.9 0.6 0
16.2 0.6 0
16.5 0.6 0
16.8 0.6 0
17.1 0.6 0
17.4 0.6 0
17.7 0.6 0
18 0.6 0
18.3 0.6 0
18.6 0.6 0
18.9 0.6 0
19.2 0.6 0
19.5 0.6 0
19.8 0.6 0
20.1 0.6 0
20.4 0.6 0
20.7 0.6 0
21 0.6 0
21.3 0.6 0
21.6 0.6 0
21.9 0.6 0
22.2 0.6 0
22.5 0.6 0
22.8 0.6 0
23.1 0.6 0
23.4 0.6 0
23.7 0.6 0
24 0.6 0
24.3 0.6 0
24.6 0.6 0
24.9 0.6 0
25.2 0.6 0
25.5 0.6 0
25.8 0.6 0
26.1 0.6 0
26.4 0.6 0
26.7 0.6 0
27 0.6 0
27.3 0.6 0
27.6 0.6 0
27.9 0.6 0
28.2 0.6 0
28.5 0.6 0
28.8 0.6 0
29.1 0.6 0
29.4 0.6 0
29.7 0.6 0
30 0.6 0
30.3 0.6 0
0 0.7 0
0.3 0.7 0
0.6 0.7 0
0.9 0.7 0
1.2 0.7 0
1.5 0.7 0
1.8 0.7 0
2.1 0.7 0
2.4 0.7 0
2.7 0.7 0
3 0.7 0
3.3 0.7 0
3.6 0.7 0
3.9 0.7 0
4.2 0.7 0
4.5 0.7 0
4.8 0.7 0
5.1 0.7 0
5.4 0.7 0
5.7 0.7 0
6 0.7 0
6.3 0.7 0
6.6 0.7 0
6.9 0.7 0
7.2 0.7 0
7.5 0.7 0
7.8 0.7 0
8.1 0.7 0
8.4 0.7 0
8.7 0.7 0
9 0.7 0
9.3 0.7 0
9.6 0.7 0
9.9 0.7 0
10.2 0.7 0
10.5 0.7 0
10.8 0.7 0
11.1 0.7 0
11.4 0.7 0
11.7 0.7 0
12 0.7 0
12.3 0.7 0
12.6 0.7 0
12.9 0.7 0
13.2 0.7 0
13.5 0.7 0
13.8 0.7 0
14.1 0.7 0
14.4 0.7 0
14.7 0.7 0
15 0.7 0
15.3 0.7 0
15.6 0.7 0
15.9 0.7 0
16.2 0.7 0
16.5 0.7 0
16.8 0.7 0
17.1 0.7 0
17.4 0.7 0
17.7 0.7 0
18 0.7 0
18.3 0.7 0
18.6 0.7 0
18.9 0.7 0
19.2 0.7 0
19.5 0.7 0
19.8 0.7 0
20.1 0.7 0
20.4 0.7 0
20.7 0.7 0
21 0.7 0
21.3 0.7 0
21.6 0.7 0
21.9 0.7 0
22.2 0.7 0
22.5 0.7 0
22.8 0.7 0
23.1 0.7 0
23.4 0.7 0
23.7 0.7 0
24 0.7 0
24.3 0.7 0
24.6 0.7 0
24.9 0.7 0
25.2 0.7 0
25.5 0.7 0
25.8 0.7 0
26.1 0.7 0
26.4 0.7 0
26.7 0.7 0
27 0.7 0
27.3 0.7 0
27.6 0.7 0
27.9 0.7 0
28.2 0.7 0
28.5 0.7 0
28.8 0.7 0
29.1 0.7 0
29.4 0.7 0
29.7 0.7 0
30 0.7 0
30.3 0.7 0
0 0.8 0
0.3 0.8 0
0.6 0.8 0
0.9 0.8 0
1.2 0.8 0
1.5 0.8 0
1.8 0.8 0
2.1 0.8 0
2.4 0.8 0
2.7 0.8 0
3 0.8 0
3.3 0.8 0
3.6 0.8 0
3.9 0.8 0
4.2 0.8 0
4.5 0.8 0
4.8 0.8 0
5.1 0.8 0
5.4 0.8 0
5.7 0.8 0
6 0.8 0
6.3 0.8 0
6.6 0.8 0
6.9 0.8 0
7.2 0.8 0
7.5 0.8 0
7.8 0.8 0
8.1 0.8 0
8.4 0.8 0
8.7 0.8 0
9 0.8 0
9.3 0.8 0
9.6 0.8 0
9.9 0.8 0
10.2 0.8 0
10.5 0.8 0
10.8 0.8 0
11.1 0.8 0
11.4 0.8 0
11.7 0.8 0
12 0.8 0
12.3 0.8 0
12.6 0.8 0
12.9 0.8 0
13.2 0.8 0
13.5 0.8 0
13.8 0.8 0
14.1 0.8 0
14.4 0.8 0
14.7 0.8 0
15 0.8 0
15.3 0.8 0
15.6 0.8 0
15.9 0.8 0
16.2 0.8 0
16.5 0.8 0
16.8 0.8 0
17.1 0.8 0
17.4 0.8 0
17.7 0.8 0
18 0.8 0
18.3 0.8 0
18.6 0.8 0
18.9 0.8 0
19.2 0.8 0
19.5 0.8 0
19.8 0.8 0
20.1 0.8 0
20.4 0.8 0
20.7 0.8 0
21 0.8 0
21.3 0.8 0
21.6 0.8 0
21.9 0.8 0
22.2 0.8 0
22.5 0.8 0
22.8 0.8 0
23.1 0.8 0
23.4 0.8 0
23.7 0.8 0
24 0.8 0
24.3 0.8 0
24.6 0.8 0
24.9 0.8 0
25.2 0.8 0
25.5 0.8 0
25.8 0.8 0
26.1 0.8 0
26.4 0.8 0
26.7 0.8 0
27 0.8 0
27.3 0.8 0
27.6 0.8 0
27.9 0.8 0
28.2 0.8 0
28.5 0.8 0
28.8 0.8 0
29.1 0.8 0
29.4 0.8 0
29.7 0.8 0
30 0.8 0
30.3 0.8 0
0 0.9 0
0.3 0.9 0
0.6 0.9 0
0.9 0.9 0
1.2 0.9 0
1.5 0.9 0
1.8 0.9 0
2.1 0.9 0
2.4 0.9 0
2.7 0.9 0
3 0.9 0
3.3 0.9 0
3.6 0.9 0
3.9 0.9 0
4.2 0.9 0
4.5 0.9 0
4.8 0.9 0
5.1 0.9 0
5.4 0.9 0
5.7 0.9 0
6 0.9 0
6.3 0.9 0
6.6 0.9 0
6.9 0.9 0
7.2 0.9 0
7.5 0.9 0
7.8 0.9 0
8.1 0.9 0
8.4 0.9 0
8.7 0.9 0
9 0.9 0
9.3 0.9 0
9.6 0.9 0
9.9 0.9 0
10.2 0.9 0
10.5 0.9 0
10.8 0.9 0
11.1 0.9 0
11.4 0.9 0
11.7 0.9 0
12 0.9 0
12.3 0.9 0
12.6 0.9 0
12.9 0.9 0
13.2 0.9 0
13.5 0.9 0
13.8 0.9 0
14.1 0.9 0
14.4 0.9 0
14.7 0.9 0
15 0.9 0
15.3 0.9 0
15.6 0.9 0
15.9 0.9 0
16.2 0.9 0
16.5 0.9 0
16.8 0.9 0
17.1 0.9 0
17.4 0.9 0
17.7 0.9 0
18 0.9 0
18.3 0.9 0
18.6 0.9 0
18.9 0.9 0
19.2 0.9 0
19.5 0.9 0
19.8 0.9 0
20.1 0.9 0
20.4 0.9 0
20.7 0.9 0
21 0.9 0
21.3 0.9 0
21.6 0.9 0
21.9 0.9 0
22.2 0.9 0
22.5 0.9 0
22.8 0.9 0
23.1 0.9 0
23.4 0.9 0
23.7 0.9 0
24 0.9 0
24.3 0.9 0
24.6 0.9 0
24.9 0.9 0
25.2 0.9 0
25.5 0.9 0
25.8 0.9 0
26.1 0.9 0
26.4 0.9 0
26.7 0.9 0
27 0.9 0
27.3 0.9 0
27.6 0.9 0
27.9 0.9 0
28.2 0.9 0
28.5 0.9 0
28.8 0.9 0
29.1 0.9 0
29.4 0.9 0
29.7 0.9 0
30 0.9 0
30.3 0.9 0
0 1 0
0.3 1 0
0.6 1 0
0.9 1 0
1.2 1 0
1.5 1 0
1.8 1 0
2.1 1 0
2.4 1 0
2.7 1 0
3 1 0
3.3 1 0
3.6 1 0
3.9 1 0
4.2 1 0
4.5 1 0
4.8 1 0
5.1 1 0
5.4 1 0
5.7 1 0
6 1 0
6.3 1 0
6.6 1 0
6.9 1 0
7.2 1 0
7.5 1 0
7.8 1 0
8.1 1 0
8.4 1 0
8.7 1 0
9 1 0
9.3 1 0
9.6 1 0
9.9 1 0
10.2 1 0
10.5 1 0
10.8 1 0
11.1 1 0
11.4 1 0
11.7 1 0
12 1 0
12.3 1 0
12.6 1 0
12.9 1 0
13.2 1 0
13.5 1 0
13.8 1 0
14.1 1 0
14.4 1 0
14.7 1 0
15 1 0
15.3 1 0
15.6 1 0
15.9 1 0
16.2 1 0
16.5 1 0
16.8 1 0
17.1 1 0
17.4 1 0
17.7 1 0
18 1 0
18.3 1 0
18.6 1 0
18.9 1 0
19.2 1 0
19.5 1 0
19.8 1 0
20.1 1 0
20.4 1 0
20.7 1 0
21 1 0
21.3 1 0
21.6 1 0
21.9 1 0
22.2 1 0
22.5 1 0
22.8 1 0
23.1 1 0
23.4 1 0
23.7 1 0
24 1 0
24.3 1 0
24.6 1 0
24.9 1 0
25.2 1 0
25.5 1 0
25.8 1 0
26.1 1 0
26.4 1 0
26.7 1 0
27 1 0
27.3 1 0
27.6 1 0
27.9 1 0
28.2 1 0
28.5 1 0
28.8 1 0
29.1 1 0
29.4 1 0
29.7 1 0
30 1 0
30.3 1 0
0 1.1 0
0.3 1.1 0
0.6 1.1 0
0.9 1.1 0
1.2 1.1 0
1.5 1.1 0
1.8 1.1 0
2.1 1.1 0
2.4 1.1 0
2.7 1.1 0
3 1.1 0
3.3 1.1 0
3.6 1.1 0
3.9 1.1 0
4.2 1.1 0
4.5 1.1 0
4.8 1.1 0
5.1 1.1 0
5.4 1.1 0
5.7 1.1 0
6 1.1 0
6.3 1.1 0
6.6 1.1 0
6.9 1.1 0
7.2 1.1 0
7.5 1.1 0
7.8 1.1 0
8.1 1.1 0
8.4 1.1 0
8.7 1.1 0
9 1.1 0
9.3 1.1 0
9.6 1.1 0
9.9 1.1 0
10.2 1.1 0
10.5 1.1 0
10.8 1.1 0
11.1 1.1 0
11.4 1.1 0
11.7 1.1 0
12 1.1 0
12.3 1.1 0
12.6 1.1 0
12.9 1.1 0
13.2 1.1 0
13.5 1.1 0
13.8 1.1 0
14.1 1.1 0
14.4 1.1 0
14.7 1.1 0
15 1.1 0
15.3 1.1 0
15.6 1.1 0
15.9 1.1 0
16.2 1.1 0
16.5 1.1 0
16.8 1.1 0
17.1 1.1 0
17.4 1.1 0
17.7 1.1 0
18 1.1 0
18.3 1.1 0
18.6 1.1 0
18.9 1.1 0
19.2 1.1 0
19.5 1.1 0
19.8 1.1 0
20.1 1.1 0
20.4 1.1 0
20.7 1.1 0
21 1.1 0
21.3 1.1 0
21.6 1.1 0
21.9 1.1 0
22.2 1.1 0
22.5 1.1 0
22.8 1.1 0
23.1 1.1 0
23.4 1.1 0
23.7 1.1 0
24 1.1 0
24.3 1.1 0
24.6 1.1 0
24.9 1.1 0
25.2 1.1 0
25.5 1.1 0
25.8 1.1 0
26.1 1.1 0
26.4 1.1 0
26.7 1.1 0
27 1.1 0
27.3 1.1 0
27.6 1.1 0
27.9 1.1 0
28.2 1.1 0
28.5 1.1 0
28.8 1.1 0
29.1 1.1 0
29.4 1.1 0
29.7 1.1 0
30 1.1 0
30.3 1.1 0

POINT_DATA 1224

VECTORS velocity double
LOOKUP_TABLE default
-1 0 0
-0.91716 0 0
-0.878011 0 0
-0.866953 0 0
-0.864589 0 0
-0.864164 0 0
-0.864095 0 0
-0.864085 0 0
-0.864083 0 0
-0.864083 0 0
-0.864083 0 0
-0.864083 0 0
-0.864084 0 0
-0.864084 0 0
-0.864084 0 0
-0.864084 0 0
-0.864084 0 0
-0.864084 0 0
-0.864084 0 0
-0.864084 0 0
-0.864085 0 0
-0.864085 0 0
-0.864085 0 0
-0.864085 0 0
-0.864085 0 0
-0.864085 0 0
-0.864085 0 0
-0.864085 0 0
-0.864085 0 0
-0.864085 0 0
-0.864085 0 0
-0.864085 0 0
-0.864085 0 0
-0.864085 0 0
-0.864084 0 0
-0.864084 0 0
-0.864084 0 0
-0.864084 0 0
-0.864084 0 0
-0.864084 0 0
-0.864084 0 0
-0.864083 0 0
-0.864083 0 0
-0.864083 0 0
-0.864083 0 0
-0.864082 0 0
-0.864082 0 0
-0.864082 0 0
-0.864082 0 0
-0.864081 0 0
-0.864081 0 0
-0.86408 0 0
-0.86408 0 0
-0.86408 0 0
-0.864079 0 0
-0.864079 0 0
-0.864079 0 0
-0.864078 0 0
-0.864078 0 0
-0.864077 0 0
-0.864077 0 0
-0.864076 0 0
-0.864076 0 0
-0.864075 0 0
-0.864075 0 0
-0.864074 0 0
-0.864074 0 0
-0.864073 0 0
-0.864072 0 0
-0.864072 0 0
-0.864071 0 0
-0.864071 0 0
-0.86407 0 0
-0.864069 0 0
-0.864069 0 0
-0.864068 0 0
-0.864067 0 0
-0.864067 0 0
-0.864066 0 0
-0.864065 0 0
-0.864065 0 0
-0.864064 0 0
-0.864063 0 0
-0.864063 0 0
-0.864062 0 0
-0.864061 0 0
-0.86406 0 0
-0.86406 0 0
-0.864059 0 0
-0.864058 0 0
-0.864057 0 0
-0.864057 0 0
-0.864056 0 0
-0.864055 0 0
-0.864055 0 0
-0.864055 0 0
-0.864059 0 0
-0.864088 0 0
-0.864194 0 0
-0.865755 0 0
-0.865755 0 0
-1 0 0
1 -0.0276133 0
0.91716 0.0276133 0
0.878011 0.0130498 0
0.866953 0.00368577 0
0.864589 0.000788011 0
0.864164 0.000141638 0
0.864095 2.29782e-05 0
0.864085 3.48975e-06 0
0.864083 4.46836e-07 0
0.864083 -2.30504e-08 0
0.864083 -9.44177e-08 0
0.864083 -1.04987e-07 0
0.864084 -1.06844e-07 0
0.864084 -1.07591e-07 0
0.864084 -1.08311e-07 0
0.864084 -1.09151e-07 0
0.864084 -1.10126e-07 0
0.864084 -1.11235e-07 0
0.864084 -1.12475e-07 0
0.864084 -1.13845e-07 0
0.864085 -1.15344e-07 0
0.864085 -1.16968e-07 0
0.864085 -1.18717e-07 0
0.864085 -1.20591e-07 0
0.864085 -1.22586e-07 0
0.864085 -1.247e-07 0
0.864085 -1.26927e-07 0
0.864085 -1.29265e-07 0
0.864085 -1.31712e-07 0
0.864085 -1.34265e-07 0
0.864085 -1.36923e-07 0
0.864085 -1.39683e-07 0
0.864085 -1.4254e-07 0
0.864085 -1.45493e-07 0
0.864084 -1.48539e-07 0
0.864084 -1.51673e-07 0
0.864084 -1.54898e-07 0
0.864084 -1.58212e-07 0
0.864084 -1.61608e-07 0
0.864084 -1.65076e-07 0
0.864084 -1.68609e-07 0
0.864083 -1.7221e-07 0
0.864083 -1.75876e-07 0
0.864083 -1.79604e-07 0
0.864083 -1.83389e-07 0
0.864082 -1.87241e-07 0
0.864082 -1.91145e-07 0
0.864082 -1.95092e-07 0
0.864082 -1.99069e-07 0
0.864081 -2.03194e-07 0
0.864081 -2.07359e-07 0
0.86408 -2.11599e-07 0
0.86408 -2.15861e-07 0
0.86408 -2.20074e-07 0
0.864079 -2.24263e-07 0
0.864079 -2.28474e-07 0
0.864079 -2.32701e-07 0
0.864078 -2.36946e-07 0
0.864078 -2.41195e-07 0
0.864077 -2.45432e-07 0
0.864077 -2.49658e-07 0
0.864076 -2.53875e-07 0
0.864076 -2.58082e-07 0
0.864075 -2.62277e-07 0
0.864075 -2.66455e-07 0
0.864074 -2.70613e-07 0
0.864074 -2.74746e-07 0
0.864073 -2.78852e-07 0
0.864072 -2.82925e-07 0
0.864072 -2.86963e-07 0
0.864071 -2.90961e-07 0
0.864071 -2.94915e-07 0
0.86407 -2.98822e-07 0
0.864069 -3.02677e-07 0
0.864069 -3.06476e-07 0
0.864068 -3.10217e-07 0
0.864067 -3.13895e-07 0
0.864067 -3.17506e-07 0
0.864066 -3.21046e-07 0
0.864065 -3.24516e-07 0
0.864065 -3.27905e-07 0
0.864064 -3.31212e-07 0
0.864063 -3.34433e-07 0
0.864063 -3.37565e-07 0
0.864062 -3.40605e-07 0
0.864061 -3.43549e-07 0
0.86406 -3.46395e-07 0
0.86406 -3.49139e-07 0
0.864059 -3.5178e-07 0
0.864058 -3.54324e-07 0
0.864057 -3.56817e-07 0
0.864057 -3.59502e-07 0
0.864056 -3.6364e-07 0
0.864055 -3.75727e-07 0
0.864055 -4.29297e-07 0
0.864055 -6.98434e-07 0
0.864059 -2.05317e-06 0
0.864088 -1.03095e-05 0
0.864194 -3.57758e-05 0
0.865755 -0.000521013 0
0.865755 -0.00136201 0
1 -0.00136201 0
1 -0.0196561 0
1.02387 0.0196561 0
1.02864 0.011459 0
1.02861 0.00369584 0
1.02829 0.000894859 0
1.02817 0.000182192 0
1.02814 3.33239e-05 0
1.02813 5.6725e-06 0
1.02813 8.68574e-07 0
1.02813 6.41763e-08 0
1.02813 -6.76269e-08 0
1.02813 -8.89448e-08 0
1.02813 -9.26396e-08 0
1.02813 -9.37464e-08 0
1.02813 -9.46173e-08 0
1.02813 -9.55979e-08 0
1.02813 -9.6731e-08 0
1.02813 -9.80186e-08 0
1.02813 -9.94579e-08 0
1.02813 -1.01047e-07 0
1.02813 -1.02783e-07 0
1.02813 -1.04664e-07 0
1.02813 -1.06687e-07 0
1.02813 -1.08851e-07 0
1.02813 -1.11152e-07 0
1.02813 -1.13588e-07 0
1.02813 -1.16156e-07 0
1.02813 -1.18853e-07 0
1.02813 -1.21676e-07 0
1.02813 -1.24622e-07 0
1.02813 -1.27688e-07 0
1.02813 -1.30869e-07 0
1.02813 -1.34164e-07 0
1.02813 -1.37568e-07 0
1.02813 -1.41077e-07 0
1.02813 -1.44689e-07 0
1.02813 -1.48399e-07 0
1.02813 -1.52204e-07 0
1.02813 -1.56099e-07 0
1.02813 -1.6008e-07 0
1.02813 -1.64145e-07 0
1.02813 -1.68289e-07 0
1.02813 -1.72508e-07 0
1.02813 -1.76798e-07 0
1.02813 -1.81156e-07 0
1.02813 -1.85575e-07 0
1.02813 -1.90053e-07 0
1.02813 -1.94586e-07 0
1.02813 -1.99177e-07 0
1.02812 -2.03808e-07 0
1.02812 -2.08483e-07 0
1.02812 -2.13192e-07 0
1.02812 -2.17928e-07 0
1.02812 -2.22696e-07 0
1.02812 -2.27493e-07 0
1.02812 -2.32311e-07 0
1.02812 -2.37146e-07 0
1.02812 -2.41992e-07 0
1.02812 -2.46846e-07 0
1.02812 -2.51703e-07 0
1.02812 -2.5656e-07 0
1.02812 -2.61412e-07 0
1.02812 -2.66254e-07 0
1.02812 -2.71081e-07 0
1.02812 -2.75891e-07 0
1.02812 -2.80677e-07 0
1.02812 -2.85435e-07 0
1.02812 -2.90162e-07 0
1.02812 -2.94852e-07 0
1.02812 -2.99501e-07 0
1.02812 -3.04105e-07 0
1.02812 -3.08659e-07 0
1.02812 -3.13158e-07 0
1.02812 -3.17599e-07 0
1.02811 -3.21977e-07 0
1.02811 -3.26286e-07 0
1.02811 -3.30524e-07 0
1.02811 -3.34685e-07 0
1.02811 -3.38765e-07 0
1.02811 -3.4276e-07 0
1.02811 -3.46666e-07 0
1.02811 -3.50478e-07 0
1.02811 -3.54192e-07 0
1.02811 -3.57805e-07 0
1.02811 -3.61312e-07 0
1.02811 -3.64709e-07 0
1.02811 -3.67993e-07 0
1.02811 -3.71161e-07 0
1.02811 -3.74211e-07 0
1.02811 -3.77156e-07 0
1.02811 -3.8007e-07 0
1.02811 -3.83342e-07 0
1.02811 -3.88996e-07 0
1.02811 -4.07443e-07 0
1.02811 -4.9222e-07 0
1.02811 -9.19329e-07 0
1.02811 -3.10366e-06 0
1.02812 -1.46522e-05 0
1.02822 -6.93221e-05 0
1.02804 -0.000462706 0
1.02804 -0.00114512 0
1 -0.00114512 0
1 -0.0120215 0
1.0229 0.0120215 0
1.03294 0.0081134 0
1.03534 0.00289543 0
1.03573 0.000764833 0
1.03577 0.000168088 0
1.03578 3.27877e-05 0
1.03578 5.8856e-06 0
1.03577 9.5884e-07 0
1.03577 1.02063e-07 0
1.03577 -4.20145e-08 0
1.03577 -6.5888e-08 0
1.03577 -7.02343e-08 0
1.03577 -7.16824e-08 0
1.03577 -7.28737e-08 0
1.03577 -7.41985e-08 0
1.03577 -7.57041e-08 0
1.03577 -7.73911e-08 0
1.03577 -7.92562e-08 0
1.03577 -8.1296e-08 0
1.03577 -8.35077e-08 0
1.03577 -8.58883e-08 0
1.03577 -8.84352e-08 0
1.03577 -9.11453e-08 0
1.03577 -9.4015e-08 0
1.03577 -9.70409e-08 0
1.03577 -1.0022e-07 0
1.03577 -1.03549e-07 0
1.03577 -1.07024e-07 0
1.03577 -1.1064e-07 0
1.03577 -1.14395e-07 0
1.03577 -1.18283e-07 0
1.03577 -1.22302e-07 0
1.03577 -1.26445e-07 0
1.03577 -1.3071e-07 0
1.03577 -1.35092e-07 0
1.03577 -1.39587e-07 0
1.03577 -1.44189e-07 0
1.03577 -1.48893e-07 0
1.03577 -1.53696e-07 0
1.03577 -1.58594e-07 0
1.03577 -1.63581e-07 0
1.03577 -1.68653e-07 0
1.03577 -1.73804e-07 0
1.03577 -1.79031e-07 0
1.03577 -1.84326e-07 0
1.03577 -1.89685e-07 0
1.03577 -1.95106e-07 0
1.03577 -2.00586e-07 0
1.03577 -2.06108e-07 0
1.03577 -2.11675e-07 0
1.03577 -2.17277e-07 0
1.03577 -2.22912e-07 0
1.03577 -2.28581e-07 0
1.03577 -2.34279e-07 0
1.03577 -2.39998e-07 0
1.03576 -2.45731e-07 0
1.03576 -2.51473e-07 0
1.03576 -2.57218e-07 0
1.03576 -2.62964e-07 0
1.03576 -2.68704e-07 0
1.03576 -2.74433e-07 0
1.03576 -2.80146e-07 0
1.03576 -2.85836e-07 0
1.03576 -2.915e-07 0
1.03576 -2.97131e-07 0
1.03576 -3.02724e-07 0
1.03576 -3.08274e-07 0
1.03576 -3.13775e-07 0
1.03576 -3.19223e-07 0
1.03576 -3.24612e-07 0
1.03576 -3.29937e-07 0
1.03576 -3.35193e-07 0
1.03576 -3.40373e-07 0
1.03576 -3.45474e-07 0
1.03576 -3.5049e-07 0
1.03576 -3.55415e-07 0
1.03576 -3.60245e-07 0
1.03576 -3.64975e-07 0
1.03576 -3.69599e-07 0
1.03575 -3.74113e-07 0
1.03575 -3.78511e-07 0
1.03575 -3.82789e-07 0
1.03575 -3.86943e-07 0
1.03575 -3.90968e-07 0
1.03575 -3.94858e-07 0
1.03575 -3.98611e-07 0
1.03575 -4.02222e-07 0
1.03575 -4.0569e-07 0
1.03575 -4.09027e-07 0
1.03575 -4.12304e-07 0
1.03575 -4.15906e-07 0
1.03575 -4.21825e-07 0
1.03575 -4.40299e-07 0
1.03575 -5.23909e-07 0
1.03575 -9.42195e-07 0
1.03575 -3.06809e-06 0
1.03574 -1.38159e-05 0
1.03573 -6.58138e-05 0
1.0353 -0.000319938 0
1.0353 -0.000769115 0
1 -0.000769115 0
1 -0.0056998 0
1.01896 0.0056998 0
1.03079 0.00417088 0
1.03476 0.00157257 0
1.03575 0.000434621 0
1.03596 9.92095e-05 0
1.036 1.99462e-05 0
1.036 3.658e-06 0
1.036 6.019e-07 0
1.036 6.22181e-08 0
1.036 -2.92408e-08 0
1.036 -4.46248e-08 0
1.036 -4.78032e-08 0
1.036 -4.93108e-08 0
1.036 -5.07883e-08 0
1.036 -5.24611e-08 0
1.036 -5.43481e-08 0
1.036 -5.64445e-08 0
1.036 -5.87452e-08 0
1.036 -6.12463e-08 0
1.036 -6.39441e-08 0
1.036 -6.68351e-08 0
1.036 -6.99161e-08 0
1.036 -7.31838e-08 0
1.036 -7.66335e-08 0
1.036 -8.02613e-08 0
1.036 -8.40635e-08 0
1.036 -8.80363e-08 0
1.036 -9.21749e-08 0
1.036 -9.64745e-08 0
1.036 -1.00931e-07 0
1.036 -1.05538e-07 0
1.036 -1.10293e-07 0
1.036 -1.1519e-07 0
1.036 -1.20223e-07 0
1.036 -1.25388e-07 0
1.036 -1.30681e-07 0
1.036 -1.36094e-07 0
1.036 -1.41622e-07 0
1.036 -1.4726e-07 0
1.036 -1.53003e-07 0
1.036 -1.58847e-07 0
1.036 -1.64786e-07 0
1.036 -1.70811e-07 0
1.036 -1.7692e-07 0
1.036 -1.83104e-07 0
1.036 -1.89359e-07 0
1.036 -1.95681e-07 0
1.036 -2.02063e-07 0
1.036 -2.08496e-07 0
1.036 -2.14978e-07 0
1.036 -2.215e-07 0
1.036 -2.28057e-07 0
1.036 -2.34646e-07 0
1.036 -2.41261e-07 0
1.03599 -2.47894e-07 0
1.03599 -2.54539e-07 0
1.03599 -2.6119e-07 0
1.03599 -2.67841e-07 0
1.03599 -2.74487e-07 0
1.03599 -2.81122e-07 0
1.03599 -2.8774e-07 0
1.03599 -2.94333e-07 0
1.03599 -3.00896e-07 0
1.03599 -3.07423e-07 0
1.03599 -3.13908e-07 0
1.03599 -3.20344e-07 0
1.03599 -3.26726e-07 0
1.03599 -3.33048e-07 0
1.03599 -3.39303e-07 0
1.03599 -3.45484e-07 0
1.03599 -3.51587e-07 0
1.03599 -3.57606e-07 0
1.03599 -3.63533e-07 0
1.03599 -3.69363e-07 0
1.03599 -3.7509e-07 0
1.03599 -3.80708e-07 0
1.03599 -3.86212e-07 0
1.03599 -3.91595e-07 0
1.03599 -3.96851e-07 0
1.03598 -4.01976e-07 0
1.03598 -4.06964e-07 0
1.03598 -4.11809e-07 0
1.03598 -4.16505e-07 0
1.03598 -4.21049e-07 0
1.03598 -4.25434e-07 0
1.03598 -4.29655e-07 0
1.03598 -4.33709e-07 0
1.03598 -4.37593e-07 0
1.03598 -4.41312e-07 0
1.03598 -4.44908e-07 0
1.03598 -4.48617e-07 0
1.03598 -4.53655e-07 0
1.03598 -4.66286e-07 0
1.03598 -5.18647e-07 0
1.03598 -7.75063e-07 0
1.03597 -2.0663e-06 0
1.03596 -8.45824e-06 0
1.03587 -3.86872e-05 0
1.0354 -0.000163059 0
1.0354 -0.00038509 0
1 -0.00038509 0
1 -3.00612e-07 0
1.0171 3.00612e-07 0
1.02961 -4.73817e-07 0
1.03433 -7.33114e-07 0
1.03564 -4.98179e-07 0
1.03594 -2.51705e-07 0
1.036 -1.17266e-07 0
1.03601 -5.88376e-08 0
1.03601 -3.59e-08 0
1.03601 -2.75015e-08 0
1.03601 -2.49422e-08 0
1.03601 -2.47407e-08 0
1.03601 -2.55813e-08 0
1.03601 -2.69662e-08 0
1.03601 -2.87048e-08 0
1.03601 -3.07234e-08 0
1.03601 -3.29922e-08 0
1.03601 -3.54984e-08 0
1.03601 -3.82352e-08 0
1.03601 -4.11977e-08 0
1.03601 -4.43817e-08 0
1.03601 -4.77834e-08 0
1.03601 -5.13987e-08 0
1.03601 -5.52241e-08 0
1.03601 -5.92539e-08 0
1.03601 -6.34838e-08 0
1.03601 -6.79093e-08 0
1.03601 -7.25261e-08 0
1.03601 -7.73287e-08 0
1.03601 -8.23115e-08 0
1.03601 -8.74691e-08 0
1.03601 -9.27964e-08 0
1.03601 -9.82876e-08 0
1.03601 -1.03937e-07 0
1.03601 -1.09739e-07 0
1.03601 -1.15688e-07 0
1.03601 -1.21778e-07 0
1.036 -1.28002e-07 0
1.036 -1.34354e-07 0
1.036 -1.40828e-07 0
1.036 -1.47417e-07 0
1.036 -1.54118e-07 0
1.036 -1.60923e-07 0
1.036 -1.67823e-07 0
1.036 -1.74814e-07 0
1.036 -1.81887e-07 0
1.036 -1.89038e-07 0
1.036 -1.96261e-07 0
1.036 -2.03547e-07 0
1.036 -2.10891e-07 0
1.036 -2.18287e-07 0
1.036 -2.2573e-07 0
1.036 -2.3321e-07 0
1.036 -2.40719e-07 0
1.036 -2.48251e-07 0
1.036 -2.55798e-07 0
1.036 -2.63355e-07 0
1.036 -2.70915e-07 0
1.036 -2.78472e-07 0
1.036 -2.86019e-07 0
1.036 -2.93549e-07 0
1.036 -3.01055e-07 0
1.036 -3.08529e-07 0
1.036 -3.15965e-07 0
1.036 -3.23355e-07 0
1.036 -3.30694e-07 0
1.036 -3.37974e-07 0
1.036 -3.45188e-07 0
1.036 -3.52329e-07 0
1.03599 -3.5939e-07 0
1.03599 -3.66365e-07 0
1.03599 -3.73246e-07 0
1.03599 -3.80026e-07 0
1.03599 -3.86699e-07 0
1.03599 -3.93259e-07 0
1.03599 -3.99697e-07 0
1.03599 -4.06008e-07 0
1.03599 -4.12185e-07 0
1.03599 -4.18222e-07 0
1.03599 -4.24111e-07 0
1.03599 -4.29847e-07 0
1.03599 -4.35423e-07 0
1.03599 -4.40834e-07 0
1.03599 -4.46074e-07 0
1.03599 -4.51136e-07 0
1.03599 -4.56014e-07 0
1.03599 -4.60705e-07 0
1.03599 -4.65202e-07 0
1.03599 -4.695e-07 0
1.03599 -4.73595e-07 0
1.03599 -4.77483e-07 0
1.03598 -4.81162e-07 0
1.03598 -4.84623e-07 0
1.03598 -4.87838e-07 0
1.03598 -4.90686e-07 0
1.03598 -4.93003e-07 0
1.03598 -4.95166e-07 0
1.03595 -4.96513e-07 0
1.03584 -4.9635e-07 0
1.03535 -4.92179e-07 0
1.03535 -4.81121e-07 0
1 -4.81121e-07 0
1 0.00569927 0
1.0171 -0.00569927 0
1.02961 -0.00417186 0
1.03433 -0.00157401 0
1.03564 -0.000435583 0
1.03594 -9.96919e-05 0
1.036 -2.01709e-05 0
1.03601 -3.77159e-06 0
1.03601 -6.72103e-07 0
1.03601 -1.16607e-07 0
1.03601 -2.04174e-08 0
1.03601 -4.77627e-09 0
1.03601 -3.33417e-09 0
1.03601 -4.61733e-09 0
1.03601 -6.625e-09 0
1.03601 -8.99228e-09 0
1.03601 -1.16441e-08 0
1.03601 -1.45605e-08 0
1.03601 -1.77333e-08 0
1.03601 -2.11573e-08 0
1.03601 -2.48276e-08 0
1.03601 -2.87397e-08 0
1.03601 -3.28891e-08 0
1.03601 -3.72724e-08 0
1.03601 -4.18822e-08 0
1.03601 -4.67139e-08 0
1.03601 -5.17625e-08 0
1.03601 -5.70233e-08 0
1.03601 -6.24898e-08 0
1.03601 -6.81555e-08 0
1.03601 -7.40146e-08 0
1.03601 -8.00612e-08 0
1.03601 -8.62888e-08 0
1.03601 -9.26911e-08 0
1.03601 -9.92614e-08 0
1.03601 -1.05993e-07 0
1.03601 -1.12881e-07 0
1.036 -1.19917e-07 0
1.036 -1.27092e-07 0
1.036 -1.34401e-07 0
1.036 -1.41836e-07 0
1.036 -1.49394e-07 0
1.036 -1.57064e-07 0
1.036 -1.6484e-07 0
1.036 -1.72712e-07 0
1.036 -1.80674e-07 0
1.036 -1.88721e-07 0
1.036 -1.96844e-07 0
1.036 -2.05033e-07 0
1.036 -2.13288e-07 0
1.036 -2.216e-07 0
1.036 -2.29962e-07 0
1.036 -2.38365e-07 0
1.036 -2.46795e-07 0
1.036 -2.55243e-07 0
1.036 -2.63704e-07 0
1.036 -2.72174e-07 0
1.036 -2.80642e-07 0
1.036 -2.89105e-07 0
1.036 -2.97552e-07 0
1.036 -3.05977e-07 0
1.036 -3.1437e-07 0
1.036 -3.22725e-07 0
1.036 -3.31033e-07 0
1.036 -3.39287e-07 0
1.036 -3.4748e-07 0
1.036 -3.55602e-07 0
1.036 -3.63648e-07 0
1.036 -3.71609e-07 0
1.03599 -3.79476e-07 0
1.03599 -3.87243e-07 0
1.03599 -3.94902e-07 0
1.03599 -4.02445e-07 0
1.03599 -4.09864e-07 0
1.03599 -4.17152e-07 0
1.03599 -4.24302e-07 0
1.03599 -4.31305e-07 0
1.03599 -4.38155e-07 0
1.03599 -4.44845e-07 0
1.03599 -4.51366e-07 0
1.03599 -4.57713e-07 0
1.03599 -4.63878e-07 0
1.03599 -4.69855e-07 0
1.03599 -4.75637e-07 0
1.03599 -4.81217e-07 0
1.03599 -4.8659e-07 0
1.03599 -4.91749e-07 0
1.03599 -4.96688e-07 0
1.03599 -5.014e-07 0
1.03599 -5.05872e-07 0
1.03599 -5.10052e-07 0
1.03598 -5.137e-07 0
1.03598 -5.15588e-07 0
1.03598 -5.094e-07 0
1.03598 -4.62751e-07 0
1.03598 -2.10929e-07 0
1.03598 1.07591e-06 0
1.03595 7.46507e-06 0
1.03584 3.76942e-05 0
1.03535 0.000162074 0
1.03535 0.000384127 0
1 0.000384127 0
1 0.0120211 0
1.01897 -0.0120211 0
1.03079 -0.00811447 0
1.03476 -0.00289678 0
1.03575 -0.00076569 0
1.03596 -0.000168507 0
1.036 -3.29834e-05 0
1.036 -5.9873e-06 0
1.036 -1.02442e-06 0
1.036 -1.54679e-07 0
1.036 -6.99591e-09 0
1.036 1.6714e-08 0
1.036 1.91647e-08 0
1.036 1.77612e-08 0
1.036 1.54442e-08 0
1.036 1.27201e-08 0
1.036 9.68345e-09 0
1.036 6.35645e-09 0
1.036 2.74738e-09 0
1.036 -1.13814e-09 0
1.036 -5.29464e-09 0
1.036 -9.71709e-09 0
1.036 -1.44003e-08 0
1.036 -1.93416e-08 0
1.036 -2.45312e-08 0
1.036 -2.99645e-08 0
1.036 -3.5636e-08 0
1.036 -4.15406e-08 0
1.036 -4.76709e-08 0
1.036 -5.40192e-08 0
1.036 -6.05795e-08 0
1.036 -6.73451e-08 0
1.036 -7.43089e-08 0
1.036 -8.14637e-08 0
1.036 -8.88018e-08 0
1.036 -9.63165e-08 0
1.036 -1.04002e-07 0
1.036 -1.11848e-07 0
1.036 -1.19846e-07 0
1.036 -1.2799e-07 0
1.036 -1.36271e-07 0
1.036 -1.44685e-07 0
1.036 -1.53221e-07 0
1.036 -1.6187e-07 0
1.036 -1.70624e-07 0
1.036 -1.79475e-07 0
1.036 -1.88417e-07 0
1.036 -1.97441e-07 0
1.036 -2.06531e-07 0
1.036 -2.15696e-07 0
1.036 -2.24921e-07 0
1.036 -2.34203e-07 0
1.036 -2.43528e-07 0
1.036 -2.52877e-07 0
1.036 -2.62241e-07 0
1.03599 -2.71616e-07 0
1.03599 -2.80996e-07 0
1.03599 -2.90373e-07 0
1.03599 -2.99741e-07 0
1.03599 -3.09088e-07 0
1.03599 -3.18407e-07 0
1.03599 -3.27687e-07 0
1.03599 -3.36922e-07 0
1.03599 -3.46102e-07 0
1.03599 -3.55219e-07 0
1.03599 -3.64264e-07 0
1.03599 -3.7323e-07 0
1.03599 -3.82107e-07 0
1.03599 -3.90886e-07 0
1.03599 -3.99559e-07 0
1.03599 -4.08118e-07 0
1.03599 -4.16554e-07 0
1.03599 -4.24859e-07 0
1.03599 -4.33023e-07 0
1.03599 -4.4104e-07 0
1.03599 -4.489e-07 0
1.03599 -4.56595e-07 0
1.03599 -4.64118e-07 0
1.03599 -4.7146e-07 0
1.03599 -4.78613e-07 0
1.03598 -4.85571e-07 0
1.03598 -4.92324e-07 0
1.03598 -4.98866e-07 0
1.03598 -5.0519e-07 0
1.03598 -5.11288e-07 0
1.03598 -5.17154e-07 0
1.03598 -5.22782e-07 0
1.03598 -5.28163e-07 0
1.03598 -5.33289e-07 0
1.03598 -5.38142e-07 0
1.03598 -5.42639e-07 0
1.03598 -5.46393e-07 0
1.03598 -5.47408e-07 0
1.03598 -5.35416e-07 0
1.03598 -4.57586e-07 0
1.03598 -4.3756e-08 0
1.03597 2.07752e-06 0
1.03596 1.28223e-05 0
1.03587 6.482e-05 0
1.0354 0.000318949 0
1.0354 0.000768152 0
1 0.000768152 0
1 0.0196562 0
1.02291 -0.0196562 0
1.03294 -0.0114602 0
1.03534 -0.00369701 0
1.03573 -0.000895532 0