# vtk DataFile Version 2.0
FlowField
ASCII
DATASET STRUCTURED_GRID
DIMENSIONS 102 12 1 
POINTS 1224 double
0 0 0
0.3 0 0
0.6 0 0
0.9 0 0
1.2 0 0
1.5 0 0
1.8 0 0
2.1 0 0
2.4 0 0
2.7 0 0
3 0 0
3.3 0 0
3.6 0 0
3.9 0 0
4.2 0 0
4.5 0 0
4.8 0 0
5.1 0 0
5.4 0 0
5.7 0 0
6 0 0
6.3 0 0
6.6 0 0
6.9 0 0
7.2 0 0
7.5 0 0
7.8 0 0
8.1 0 0
8.4 0 0
8.7 0 0
9 0 0
9.3 0 0
9.6 0 0
9.9 0 0
10.2 0 0
10.5 0 0
10.8 0 0
11.1 0 0
11.4 0 0
11.7 0 0
12 0 0
12.3 0 0
12.6 0 0
12.9 0 0
13.2 0 0
13.5 0 0
13.8 0 0
14.1 0 0
14.4 0 0
14.7 0 0
15 0 0
15.3 0 0
15.6 0 0
15.9 0 0
16.2 0 0
16.5 0 0
16.8 0 0
17.1 0 0
17.4 0 0
17.7 0 0
18 0 0
18.3 0 0
18.6 0 0
18.9 0 0
19.2 0 0
19.5 0 0
19.8 0 0
20.1 0 0
20.4 0 0
20.7 0 0
21 0 0
21.3 0 0
21.6 0 0
21.9 0 0
22.2 0 0
22.5 0 0
22.8 0 0
23.1 0 0
23.4 0 0
23.7 0 0
24 0 0
24.3 0 0
24.6 0 0
24.9 0 0
25.2 0 0
25.5 0 0
25.8 0 0
26.1 0 0
26.4 0 0
26.7 0 0
27 0 0
27.3 0 0
27.6 0 0
27.9 0 0
28.2 0 0
28.5 0 0
28.8 0 0
29.1 0 0
29.4 0 0
29.7 0 0
30 0 0
30.3 0 0
0 0.1 0
0.3 0.1 0
0.6 0.1 0
0.9 0.1 0
1.2 0.1 0
1.5 0.1 0
1.8 0.1 0
2.1 0.1 0
2.4 0.1 0
2.7 0.1 0
3 0.1 0
3.3 0.1 0
3.6 0.1 0
3.9 0.1 0
4.2 0.1 0
4.5 0.1 0
4.8 0.1 0
5.1 0.1 0
5.4 0.1 0
5.7 0.1 0
6 0.1 0
6.3 0.1 0
6.6 0.1 0
6.9 0.1 0
7.2 0.1 0
7.5 0.1 0
7.8 0.1 0
8.1 0.1 0
8.4 0.1 0
8.7 0.1 0
9 0.1 0
9.3 0.1 0
9.6 0.1 0
9.9 0.1 0
10.2 0.1 0
10.5 0.1 0
10.8 0.1 0
11.1 0.1 0
11.4 0.1 0
11.7 0.1 0
12 0.1 0
12.3 0.1 0
12.6 0.1 0
12.9 0.1 0
13.2 0.1 0
13.5 0.1 0
13.8 0.1 0
14.1 0.1 0
14.4 0.1 0
14.7 0.1 0
15 0.1 0
15.3 0.1 0
15.6 0.1 0
15.9 0.1 0
16.2 0.1 0
16.5 0.1 0
16.8 0.1 0
17.1 0.1 0
17.4 0.1 0
17.7 0.1 0
18 0.1 0
18.3 0.1 0
18.6 0.1 0
18.9 0.1 0
19.2 0.1 0
19.5 0.1 0
19.8 0.1 0
20.1 0.1 0
20.4 0.1 0
20.7 0.1 0
21 0.1 0
21.3 0.1 0
21.6 0.1 0
21.9 0.1 0
22.2 0.1 0
22.5 0.1 0
22.8 0.1 0
23.1 0.1 0
23.4 0.1 0
23.7 0.1 0
24 0.1 0
24.3 0.1 0
24.6 0.1 0
24.9 0.1 0
25.2 0.1 0
25.5 0.1 0
25.8 0.1 0
26.1 0.1 0
26.4 0.1 0
26.7 0.1 0
27 0.1 0
27.3 0.1 0
27.6 0.1 0
27.9 0.1 0
28.2 0.1 0
28.5 0.1 0
28.8 0.1 0
29.1 0.1 0
29.4 0.1 0
29.7 0.1 0
30 0.1 0
30.3 0.1 0
0 0.2 0
0.3 0.2 0
0.6 0.2 0
0.9 0.2 0
1.2 0.2 0
1.5 0.2 0
1.8 0.2 0
2.1 0.2 0
2.4 0.2 0
2.7 0.2 0
3 0.2 0
3.3 0.2 0
3.6 0.2 0
3.9 0.2 0
4.2 0.2 0
4.5 0.2 0
4.8 0.2 0
5.1 0.2 0
5.4 0.2 0
5.7 0.2 0
6 0.2 0
6.3 0.2 0
6.6 0.2 0
6.9 0.2 0
7.2 0.2 0
7.5 0.2 0
7.8 0.2 0
8.1 0.2 0
8.4 0.2 0
8.7 0.2 0
9 0.2 0
9.3 0.2 0
9.6 0.2 0
9.9 0.2 0
10.2 0.2 0
10.5 0.2 0
10.8 0.2 0
11.1 0.2 0
11.4 0.2 0
11.7 0.2 0
12 0.2 0
12.3 0.2 0
12.6 0.2 0
12.9 0.2 0
13.2 0.2 0
13.5 0.2 0
13.8 0.2 0
14.1 0.2 0
14.4 0.2 0
14.7 0.2 0
15 0.2 0
15.3 0.2 0
15.6 0.2 0
15.9 0.2 0
16.2 0.2 0
16.5 0.2 0
16.8 0.2 0
17.1 0.2 0
17.4 0.2 0
17.7 0.2 0
18 0.2 0
18.3 0.2 0
18.6 0.2 0
18.9 0.2 0
19.2 0.2 0
19.5 0.2 0
19.8 0.2 0
20.1 0.2 0
20.4 0.2 0
20.7 0.2 0
21 0.2 0
21.3 0.2 0
21.6 0.2 0
21.9 0.2 0
22.2 0.2 0
22.5 0.2 0
22.8 0.2 0
23.1 0.2 0
23.4 0.2 0
23.7 0.2 0
24 0.2 0
24.3 0.2 0
24.6 0.2 0
24.9 0.2 0
25.2 0.2 0
25.5 0.2 0
25.8 0.2 0
26.1 0.2 0
26.4 0.2 0
26.7 0.2 0
27 0.2 0
27.3 0.2 0
27.6 0.2 0
27.9 0.2 0
28.2 0.2 0
28.5 0.2 0
28.8 0.2 0
29.1 0.2 0
29.4 0.2 0
29.7 0.2 0
30 0.2 0
30.3 0.2 0
0 0.3 0
0.3 0.3 0
0.6 0.3 0
0.9 0.3 0
1.2 0.3 0
1.5 0.3 0
1.8 0.3 0
2.1 0.3 0
2.4 0.3 0
2.7 0.3 0
3 0.3 0
3.3 0.3 0
3.6 0.3 0
3.9 0.3 0
4.2 0.3 0
4.5 0.3 0
4.8 0.3 0
5.1 0.3 0
5.4 0.3 0
5.7 0.3 0
6 0.3 0
6.3 0.3 0
6.6 0.3 0
6.9 0.3 0
7.2 0.3 0
7.5 0.3 0
7.8 0.3 0
8.1 0.3 0
8.4 0.3 0
8.7 0.3 0
9 0.3 0
9.3 0.3 0
9.6 0.3 0
9.9 0.3 0
10.2 0.3 0
10.5 0.3 0
10.8 0.3 0
11.1 0.3 0
11.4 0.3 0
11.7 0.3 0
12 0.3 0
12.3 0.3 0
12.6 0.3 0
12.9 0.3 0
13.2 0.3 0
13.5 0.3 0
13.8 0.3 0
14.1 0.3 0
14.4 0.3 0
14.7 0.3 0
15 0.3 0
15.3 0.3 0
15.6 0.3 0
15.9 0.3 0
16.2 0.3 0
16.5 0.3 0
16.8 0.3 0
17.1 0.3 0
17.4 0.3 0
17.7 0.3 0
18 0.3 0
18.3 0.3 0
18.6 0.3 0
18.9 0.3 0
19.2 0.3 0
19.5 0.3 0
19.8 0.3 0
20.1 0.3 0
20.4 0.3 0
20.7 0.3 0
21 0.3 0
21.3 0.3 0
21.6 0.3 0
21.9 0.3 0
22.2 0.3 0
22.5 0.3 0
22.8 0.3 0
23.1 0.3 0
23.4 0.3 0
23.7 0.3 0
24 0.3 0
24.3 0.3 0
24.6 0.3 0
24.9 0.3 0
25.2 0.3 0
25.5 0.3 0
25.8 0.3 0
26.1 0.3 0
26.4 0.3 0
26.7 0.3 0
27 0.3 0
27.3 0.3 0
27.6 0.3 0
27.9 0.3 0
28.2 0.3 0
28.5 0.3 0
28.8 0.3 0
29.1 0.3 0
29.4 0.3 0
29.7 0.3 0
30 0.3 0
30.3 0.3 0
0 0.4 0
0.3 0.4 0
0.6 0.4 0
0.9 0.4 0
1.2 0.4 0
1.5 0.4 0
1.8 0.4 0
2.1 0.4 0
2.4 0.4 0
2.7 0.4 0
3 0.4 0
3.3 0.4 0
3.6 0.4 0
3.9 0.4 0
4.2 0.4 0
4.5 0.4 0
4.8 0.4 0
5.1 0.4 0
5.4 0.4 0
5.7 0.4 0
6 0.4 0
6.3 0.4 0
6.6 0.4 0
6.9 0.4 0
7.2 0.4 0
7.5 0.4 0
7.8 0.4 0
8.1 0.4 0
8.4 0.4 0
8.7 0.4 0
9 0.4 0
9.3 0.4 0
9.6 0.4 0
9.9 0.4 0
10.2 0.4 0
10.5 0.4 0
10.8 0.4 0
11.1 0.4 0
11.4 0.4 0
11.7 0.4 0
12 0.4 0
12.3 0.4 0
12.6 0.4 0
12.9 0.4 0
13.2 0.4 0
13.5 0.4 0
13.8 0.4 0
14.1 0.4 0
14.4 0.4 0
14.7 0.4 0
15 0.4 0
15.3 0.4 0
15.6 0.4 0
15.9 0.4 0
16.2 0.4 0
16.5 0.4 0
16.8 0.4 0
17.1 0.4 0
17.4 0.4 0
17.7 0.4 0
18 0.4 0
18.3 0.4 0
18.6 0.4 0
18.9 0.4 0
19.2 0.4 0
19.5 0.4 0
19.8 0.4 0
20.1 0.4 0
20.4 0.4 0
20.7 0.4 0
21 0.4 0
21.3 0.4 0
21.6 0.4 0
21.9 0.4 0
22.2 0.4 0
22.5 0.4 0
22.8 0.4 0
23.1 0.4 0
23.4 0.4 0
23.7 0.4 0
24 0.4 0
24.3 0.4 0
24.6 0.4 0
24.9 0.4 0
25.2 0.4 0
25.5 0.4 0
25.8 0.4 0
26.1 0.4 0
26.4 0.4 0
26.7 0.4 0
27 0.4 0
27.3 0.4 0
27.6 0.4 0
27.9 0.4 0
28.2 0.4 0
28.5 0.4 0
28.8 0.4 0
29.1 0.4 0
29.4 0.4 0
29.7 0.4 0
30 0.4 0
30.3 0.4 0
0 0.5 0
0.3 0.5 0
0.6 0.5 0
0.9 0.5 0
1.2 0.5 0
1.5 0.5 0
1.8 0.5 0
2.1 0.5 0
2.4 0.5 0
2.7 0.5 0
3 0.5 0
3.3 0.5 0
3.6 0.5 0
3.9 0.5 0
4.2 0.5 0
4.5 0.5 0
4.8 0.5 0
5.1 0.5 0
5.4 0.5 0
5.7 0.5 0
6 0.5 0
6.3 0.5 0
6.6 0.5 0
6.9 0.5 0
7.2 0.5 0
7.5 0.5 0
7.8 0.5 0
8.1 0.5 0
8.4 0.5 0
8.7 0.5 0
9 0.5 0
9.3 0.5 0
9.6 0.5 0
9.9 0.5 0
10.2 0.5 0
10.5 0.5 0
10.8 0.5 0
11.1 0.5 0
11.4 0.5 0
11.7 0.5 0
12 0.5 0
12.3 0.5 0
12.6 0.5 0
12.9 0.5 0
13.2 0.5 0
13.5 0.5 0
13.8 0.5 0
14.1 0.5 0
14.4 0.5 0
14.7 0.5 0
15 0.5 0
15.3 0.5 0
15.6 0.5 0
15.9 0.5 0
16.2 0.5 0
16.5 0.5 0
16.8 0.5 0
17.1 0.5 0
17.4 0.5 0
17.7 0.5 0
18 0.5 0
18.3 0.5 0
18.6 0.5 0
18.9 0.5 0
19.2 0.5 0
19.5 0.5 0
19.8 0.5 0
20.1 0.5 0
20.4 0.5 0
20.7 0.5 0
21 0.5 0
21.3 0.5 0
21.6 0.5 0
21.9 0.5 0
22.2 0.5 0
22.5 0.5 0
22.8 0.5 0
23.1 0.5 0
23.4 0.5 0
23.7 0.5 0
24 0.5 0
24.3 0.5 0
24.6 0.5 0
24.9 0.5 0
25.2 0.5 0
25.5 0.5 0
25.8 0.5 0
26.1 0.5 0
26.4 0.5 0
26.7 0.5 0
27 0.5 0
27.3 0.5 0
27.6 0.5 0
27.9 0.5 0
28.2 0.5 0
28.5 0.5 0
28.8 0.5 0
29.1 0.5 0
29.4 0.5 0
29.7 0.5 0
30 0.5 0
30.3 0.5 0
0 0.6 0
0.3 0.6 0
0.6 0.6 0
0.9 0.6 0
1.2 0.6 0
1.5 0.6 0
1.8 0.6 0
2.1 0.6 0
2.4 0.6 0
2.7 0.6 0
3 0.6 0
3.3 0.6 0
3.6 0.6 0
3.9 0.6 0
4.2 0.6 0
4.5 0.6 0
4.8 0.6 0
5.1 0.6 0
5.4 0.6 0
5.7 0.6 0
6 0.6 0
6.3 0.6 0
6.6 0.6 0
6.9 0.6 0
7.2 0.6 0
7.5 0.6 0
7.8 0.6 0
8.1 0.6 0
8.4 0.6 0
8.7 0.6 0
9 0.6 0
9.3 0.6 0
9.6 0.6 0
9.9 0.6 0
10.2 0.6 0
10.5 0.6 0
10.8 0.6 0
11.1 0.6 0
11.4 0.6 0
11.7 0.6 0
12 0.6 0
12.3 0.6 0
12.6 0.6 0
12.9 0.6 0
13.2 0.6 0
13.5 0.6 0
13.8 0.6 0
14.1 0.6 0
14.4 0.6 0
14.7 0.6 0
15 0.6 0
15.3 0.6 0
15.6 0.6 0
15.9 0.6 0
16.2 0.6 0
16.5 0.6 0
16.8 0.6 0
17.1 0.6 0
17.4 0.6 0
17.7 0.6 0
18 0.6 0
18.3 0.6 0
18.6 0.6 0
18.9 0.6 0
19.2 0.6 0
19.5 0.6 0
19.8 0.6 0
20.1 0.6 0
20.4 0.6 0
20.7 0.6 0
21 0.6 0
21.3 0.6 0
21.6 0.6 0
21.9 0.6 0
22.2 0.6 0
22.5 0.6 0
22.8 0.6 0
23.1 0.6 0
23.4 0.6 0
23.7 0.6 0
24 0.6 0
24.3 0.6 0
24.6 0.6 0
24.9 0.6 0
25.2 0.6 0
25.5 0.6 0
25.8 0.6 0
26.1 0.6 0
26.4 0.6 0
26.7 0.6 0
27 0.6 0
27.3 0.6 0
27.6 0.6 0
27.9 0.6 0
28.2 0.6 0
28.5 0.6 0
28.8 0.6 0
29.1 0.6 0
29.4 0.6 0
29.7 0.6 0
30 0.6 0
30.3 0.6 0
0 0.7 0
0.3 0.7 0
0.6 0.7 0
0.9 0.7 0
1.2 0.7 0
1.5 0.7 0
1.8 0.7 0
2.1 0.7 0
2.4 0.7 0
2.7 0.7 0
3 0.7 0
3.3 0.7 0
3.6 0.7 0
3.9 0.7 0
4.2 0.7 0
4.5 0.7 0
4.8 0.7 0
5.1 0.7 0
5.4 0.7 0
5.7 0.7 0
6 0.7 0
6.3 0.7 0
6.6 0.7 0
6.9 0.7 0
7.2 0.7 0
7.5 0.7 0
7.8 0.7 0
8.1 0.7 0
8.4 0.7 0
8.7 0.7 0
9 0.7 0
9.3 0.7 0
9.6 0.7 0
9.9 0.7 0
10.2 0.7 0
10.5 0.7 0
10.8 0.7 0
11.1 0.7 0
11.4 0.7 0
11.7 0.7 0
12 0.7 0
12.3 0.7 0
12.6 0.7 0
12.9 0.7 0
13.2 0.7 0
13.5 0.7 0
13.8 0.7 0
14.1 0.7 0
14.4 0.7 0
14.7 0.7 0
15 0.7 0
15.3 0.7 0
15.6 0.7 0
15.9 0.7 0
16.2 0.7 0
16.5 0.7 0
16.8 0.7 0
17.1 0.7 0
17.4 0.7 0
17.7 0.7 0
18 0.7 0
18.3 0.7 0
18.6 0.7 0
18.9 0.7 0
19.2 0.7 0
19.5 0.7 0
19.8 0.7 0
20.1 0.7 0
20.4 0.7 0
20.7 0.7 0
21 0.7 0
21.3 0.7 0
21.6 0.7 0
21.9 0.7 0
22.2 0.7 0
22.5 0.7 0
22.8 0.7 0
23.1 0.7 0
23.4 0.7 0
23.7 0.7 0
24 0.7 0
24.3 0.7 0
24.6 0.7 0
24.9 0.7 0
25.2 0.7 0
25.5 0.7 0
25.8 0.7 0
26.1 0.7 0
26.4 0.7 0
26.7 0.7 0
27 0.7 0
27.3 0.7 0
27.6 0.7 0
27.9 0.7 0
28.2 0.7 0
28.5 0.7 0
28.8 0.7 0
29.1 0.7 0
29.4 0.7 0
29.7 0.7 0
30 0.7 0
30.3 0.7 0
0 0.8 0
0.3 0.8 0
0.6 0.8 0
0.9 0.8 0
1.2 0.8 0
1.5 0.8 0
1.8 0.8 0
2.1 0.8 0
2.4 0.8 0
2.7 0.8 0
3 0.8 0
3.3 0.8 0
3.6 0.8 0
3.9 0.8 0
4.2 0.8 0
4.5 0.8 0
4.8 0.8 0
5.1 0.8 0
5.4 0.8 0
5.7 0.8 0
6 0.8 0
6.3 0.8 0
6.6 0.8 0
6.9 0.8 0
7.2 0.8 0
7.5 0.8 0
7.8 0.8 0
8.1 0.8 0
8.4 0.8 0
8.7 0.8 0
9 0.8 0
9.3 0.8 0
9.6 0.8 0
9.9 0.8 0
10.2 0.8 0
10.5 0.8 0
10.8 0.8 0
11.1 0.8 0
11.4 0.8 0
11.7 0.8 0
12 0.8 0
12.3 0.8 0
12.6 0.8 0
12.9 0.8 0
13.2 0.8 0
13.5 0.8 0
13.8 0.8 0
14.1 0.8 0
14.4 0.8 0
14.7 0.8 0
15 0.8 0
15.3 0.8 0
15.6 0.8 0
15.9 0.8 0
16.2 0.8 0
16.5 0.8 0
16.8 0.8 0
17.1 0.8 0
17.4 0.8 0
17.7 0.8 0
18 0.8 0
18.3 0.8 0
18.6 0.8 0
18.9 0.8 0
19.2 0.8 0
19.5 0.8 0
19.8 0.8 0
20.1 0.8 0
20.4 0.8 0
20.7 0.8 0
21 0.8 0
21.3 0.8 0
21.6 0.8 0
21.9 0.8 0
22.2 0.8 0
22.5 0.8 0
22.8 0.8 0
23.1 0.8 0
23.4 0.8 0
23.7 0.8 0
24 0.8 0
24.3 0.8 0
24.6 0.8 0
24.9 0.8 0
25.2 0.8 0
25.5 0.8 0
25.8 0.8 0
26.1 0.8 0
26.4 0.8 0
26.7 0.8 0
27 0.8 0
27.3 0.8 0
27.6 0.8 0
27.9 0.8 0
28.2 0.8 0
28.5 0.8 0
28.8 0.8 0
29.1 0.8 0
29.4 0.8 0
29.7 0.8 0
30 0.8 0
30.3 0.8 0
0 0.9 0
0.3 0.9 0
0.6 0.9 0
0.9 0.9 0
1.2 0.9 0
1.5 0.9 0
1.8 0.9 0
2.1 0.9 0
2.4 0.9 0
2.7 0.9 0
3 0.9 0
3.3 0.9 0
3.6 0.9 0
3.9 0.9 0
4.2 0.9 0
4.5 0.9 0
4.8 0.9 0
5.1 0.9 0
5.4 0.9 0
5.7 0.9 0
6 0.9 0
6.3 0.9 0
6.6 0.9 0
6.9 0.9 0
7.2 0.9 0
7.5 0.9 0
7.8 0.9 0
8.1 0.9 0
8.4 0.9 0
8.7 0.9 0
9 0.9 0
9.3 0.9 0
9.6 0.9 0
9.9 0.9 0
10.2 0.9 0
10.5 0.9 0
10.8 0.9 0
11.1 0.9 0
11.4 0.9 0
11.7 0.9 0
12 0.9 0
12.3 0.9 0
12.6 0.9 0
12.9 0.9 0
13.2 0.9 0
13.5 0.9 0
13.8 0.9 0
14.1 0.9 0
14.4 0.9 0
14.7 0.9 0
15 0.9 0
15.3 0.9 0
15.6 0.9 0
15.9 0.9 0
16.2 0.9 0
16.5 0.9 0
16.8 0.9 0
17.1 0.9 0
17.4 0.9 0
17.7 0.9 0
18 0.9 0
18.3 0.9 0
18.6 0.9 0
18.9 0.9 0
19.2 0.9 0
19.5 0.9 0
19.8 0.9 0
20.1 0.9 0
20.4 0.9 0
20.7 0.9 0
21 0.9 0
21.3 0.9 0
21.6 0.9 0
21.9 0.9 0
22.2 0.9 0
22.5 0.9 0
22.8 0.9 0
23.1 0.9 0
23.4 0.9 0
23.7 0.9 0
24 0.9 0
24.3 0.9 0
24.6 0.9 0
24.9 0.9 0
25.2 0.9 0
25.5 0.9 0
25.8 0.9 0
26.1 0.9 0
26.4 0.9 0
26.7 0.9 0
27 0.9 0
27.3 0.9 0
27.6 0.9 0
27.9 0.9 0
28.2 0.9 0
28.5 0.9 0
28.8 0.9 0
29.1 0.9 0
29.4 0.9 0
29.7 0.9 0
30 0.9 0
30.3 0.9 0
0 1 0
0.3 1 0
0.6 1 0
0.9 1 0
1.2 1 0
1.5 1 0
1.8 1 0
2.1 1 0
2.4 1 0
2.7 1 0
3 1 0
3.3 1 0
3.6 1 0
3.9 1 0
4.2 1 0
4.5 1 0
4.8 1 0
5.1 1 0
5.4 1 0
5.7 1 0
6 1 0
6.3 1 0
6.6 1 0
6.9 1 0
7.2 1 0
7.5 1 0
7.8 1 0
8.1 1 0
8.4 1 0
8.7 1 0
9 1 0
9.3 1 0
9.6 1 0
9.9 1 0
10.2 1 0
10.5 1 0
10.8 1 0
11.1 1 0
11.4 1 0
11.7 1 0
12 1 0
12.3 1 0
12.6 1 0
12.9 1 0
13.2 1 0
13.5 1 0
13.8 1 0
14.1 1 0
14.4 1 0
14.7 1 0
15 1 0
15.3 1 0
15.6 1 0
15.9 1 0
16.2 1 0
16.5 1 0
16.8 1 0
17.1 1 0
17.4 1 0
17.7 1 0
18 1 0
18.3 1 0
18.6 1 0
18.9 1 0
19.2 1 0
19.5 1 0
19.8 1 0
20.1 1 0
20.4 1 0
20.7 1 0
21 1 0
21.3 1 0
21.6 1 0
21.9 1 0
22.2 1 0
22.5 1 0
22.8 1 0
23.1 1 0
23.4 1 0
23.7 1 0
24 1 0
24.3 1 0
24.6 1 0
24.9 1 0
25.2 1 0
25.5 1 0
25.8 1 0
26.1 1 0
26.4 1 0
26.7 1 0
27 1 0
27.3 1 0
27.6 1 0
27.9 1 0
28.2 1 0
28.5 1 0
28.8 1 0
29.1 1 0
29.4 1 0
29.7 1 0
30 1 0
30.3 1 0
0 1.1 0
0.3 1.1 0
0.6 1.1 0
0.9 1.1 0
1.2 1.1 0
1.5 1.1 0
1.8 1.1 0
2.1 1.1 0
2.4 1.1 0
2.7 1.1 0
3 1.1 0
3.3 1.1 0
3.6 1.1 0
3.9 1.1 0
4.2 1.1 0
4.5 1.1 0
4.8 1.1 0
5.1 1.1 0
5.4 1.1 0
5.7 1.1 0
6 1.1 0
6.3 1.1 0
6.6 1.1 0
6.9 1.1 0
7.2 1.1 0
7.5 1.1 0
7.8 1.1 0
8.1 1.1 0
8.4 1.1 0
8.7 1.1 0
9 1.1 0
9.3 1.1 0
9.6 1.1 0
9.9 1.1 0
10.2 1.1 0
10.5 1.1 0
10.8 1.1 0
11.1 1.1 0
11.4 1.1 0
11.7 1.1 0
12 1.1 0
12.3 1.1 0
12.6 1.1 0
12.9 1.1 0
13.2 1.1 0
13.5 1.1 0
13.8 1.1 0
14.1 1.1 0
14.4 1.1 0
14.7 1.1 0
15 1.1 0
15.3 1.1 0
15.6 1.1 0
15.9 1.1 0
16.2 1.1 0
16.5 1.1 0
16.8 1.1 0
17.1 1.1 0
17.4 1.1 0
17.7 1.1 0
18 1.1 0
18.3 1.1 0
18.6 1.1 0
18.9 1.1 0
19.2 1.1 0
19.5 1.1 0
19.8 1.1 0
20.1 1.1 0
20.4 1.1 0
20.7 1.1 0
21 1.1 0
21.3 1.1 0
21.6 1.1 0
21.9 1.1 0
22.2 1.1 0
22.5 1.1 0
22.8 1.1 0
23.1 1.1 0
23.4 1.1 0
23.7 1.1 0
24 1.1 0
24.3 1.1 0
24.6 1.1 0
24.9 1.1 0
25.2 1.1 0
25.5 1.1 0
25.8 1.1 0
26.1 1.1 0
26.4 1.1 0
26.7 1.1 0
27 1.1 0
27.3 1.1 0
27.6 1.1 0
27.9 1.1 0
28.2 1.1 0
28.5 1.1 0
28.8 1.1 0
29.1 1.1 0
29.4 1.1 0
29.7 1.1 0
30 1.1 0
30.3 1.1 0

POINT_DATA 1224

SCALARS u double
LOOKUP_TABLE default
-1
-0.890155
-0.775928
-0.678686
-0.600314
-0.539058
-0.492138
-0.456612
-0.429788
-0.409424
-0.393769
-0.381516
-0.371723
-0.363721
-0.357042
-0.35136
-0.346447
-0.342139
-0.338321
-0.334906
-0.33183
-0.329044
-0.326509
-0.324194
-0.322073
-0.320124
-0.318331
-0.316677
-0.315149
-0.313735
-0.312426
-0.311211
-0.310083
-0.309035
-0.30806
-0.307153
-0.306308
-0.305519
-0.304784
-0.304098
-0.303457
-0.302858
-0.302299
-0.301777
-0.30129
-0.300838
-0.300419
-0.300033
-0.299678
-0.299355
-0.299062
-0.2988
-0.298567
-0.298362
-0.298183
-0.29803
-0.2979
-0.29779
-0.297699
-0.297625
-0.297565
-0.297517
-0.297479
-0.29745
-0.297427
-0.29741
-0.297397
-0.297388
-0.297381
-0.297376
-0.297373
-0.29737
-0.297369
-0.297368
-0.297367
-0.297366
-0.297366
-0.297366
-0.297366
-0.297366
-0.297365
-0.297365
-0.297365
-0.297365
-0.297365
-0.297365
-0.297365
-0.297365
-0.297365
-0.297365
-0.297365
-0.297365
-0.297365
-0.297365
-0.297365
-0.297365
-0.297365
-0.297366
-0.297366
-0.297367
-0.297367
-1
1
0.890155
0.775928
0.678686
0.600314
0.539058
0.492138
0.456612
0.429788
0.409424
0.393769
0.381516
0.371723
0.363721
0.357042
0.35136
0.346447
0.342139
0.338321
0.334906
0.33183
0.329044
0.326509
0.324194
0.322073
0.320124
0.318331
0.316677
0.315149
0.313735
0.312426
0.311211
0.310083
0.309035
0.30806
0.307153
0.306308
0.305519
0.304784
0.304098
0.303457
0.302858
0.302299
0.301777
0.30129
0.300838
0.300419
0.300033
0.299678
0.299355
0.299062
0.2988
0.298567
0.298362
0.298183
0.29803
0.2979
0.29779
0.297699
0.297625
0.297565
0.297517
0.297479
0.29745
0.297427
0.29741
0.297397
0.297388
0.297381
0.297376
0.297373
0.29737
0.297369
0.297368
0.297367
0.297366
0.297366
0.297366
0.297366
0.297366
0.297365
0.297365
0.297365
0.297365
0.297365
0.297365
0.297365
0.297365
0.297365
0.297365
0.297365
0.297365
0.297365
0.297365
0.297365
0.297365
0.297365
0.297366
0.297366
0.297367
0.297367
1
1
1.02798
1.03242
1.02466
1.01102
0.994783
0.977789
0.961059
0.945139
0.930292
0.916614
0.904107
0.892723
0.882386
0.873008
0.8645
0.856777
0.849757
0.843365
0.837537
0.832213
0.827339
0.822871
0.818767
0.81499
0.81151
0.808299
0.805332
0.802586
0.800043
0.797685
0.795496
0.793463
0.791573
0.789814
0.788177
0.786651
0.785229
0.783903
0.782665
0.781511
0.780433
0.779428
0.778491
0.777621
0.776813
0.776067
0.77538
0.774752
0.774181
0.773666
0.773206
0.772798
0.772441
0.772131
0.771865
0.771639
0.77145
0.771294
0.771167
0.771064
0.770982
0.770918
0.770868
0.77083
0.770801
0.770779
0.770764
0.770752
0.770744
0.770738
0.770734
0.770732
0.77073
0.770729
0.770728
0.770727
0.770727
0.770727
0.770727
0.770727
0.770726
0.770726
0.770726
0.770726
0.770726
0.770726
0.770727
0.770727
0.770727
0.770727
0.770727
0.770727
0.770727
0.770727
0.770727
0.770727
0.770727
0.770727
0.770738
0.770738
1
1
1.03305
1.06793
1.0968
1.11906
1.13542
1.14691
1.1546
1.15942
1.16214
1.16336
1.1635
1.16291
1.1618
1.16036
1.1587
1.15691
1.15506
1.15319
1.15132
1.1495
1.14772
1.14601
1.14436
1.14279
1.14129
1.13987
1.13852
1.13725
1.13604
1.13491
1.13384
1.13283
1.13189
1.131
1.13016
1.12938
1.12865
1.12796
1.12731
1.1267
1.12613
1.1256
1.1251
1.12464
1.1242
1.1238
1.12343
1.12308
1.12277
1.12248
1.12222
1.12198
1.12177
1.12159
1.12142
1.12128
1.12116
1.12106
1.12098
1.12091
1.12085
1.1208
1.12077
1.12074
1.12072
1.1207
1.12069
1.12068
1.12067
1.12067
1.12066
1.12066
1.12066
1.12066
1.12066
1.12066
1.12066
1.12066
1.12066
1.12066
1.12066
1.12066
1.12066
1.12066
1.12066
1.12066
1.12066
1.12066
1.12066
1.12066
1.12066
1.12066
1.12066
1.12066
1.12066
1.12066
1.12066
1.12066
1.12066
1.12066
1
1
1.02627
1.06424
1.10183
1.13558
1.16458
1.18891
1.20913
1.22592
1.23995
1.25177
1.26185
1.27053
1.27809
1.28474
1.29062
1.29585
1.30054
1.30475
1.30855
1.31199
1.31511
1.31795
1.32054
1.32291
1.32508
1.32707
1.3289
1.33058
1.33213
1.33356
1.33488
1.3361
1.33724
1.33829
1.33926
1.34017
1.34101
1.34179
1.34252
1.3432
1.34383
1.34442
1.34497
1.34548
1.34595
1.34638
1.34678
1.34715
1.34748
1.34777
1.34804
1.34827
1.34848
1.34865
1.3488
1.34893
1.34903
1.34912
1.34919
1.34924
1.34928
1.34932
1.34934
1.34936
1.34937
1.34938
1.34939
1.3494
1.3494
1.3494
1.3494
1.34941
1.34941
1.34941
1.34941
1.34941
1.34941
1.34941
1.34941
1.34941
1.34941
1.34941
1.34941
1.34941
1.34941
1.34941
1.34941
1.34941
1.34941
1.34941
1.34941
1.34941
1.34941
1.34941
1.34941
1.34941
1.34941
1.34941
1.3494
1.3494
1
1
1.02256
1.05948
1.09803
1.13402
1.16616
1.19425
1.21859
1.23973
1.25819
1.27449
1.28903
1.30212
1.314
1.32485
1.33482
1.34401
1.35251
1.36038
1.36768
1.37447
1.38078
1.38666
1.39214
1.39724
1.402
1.40643
1.41057
1.41444
1.41805
1.42142
1.42457
1.42752
1.43027
1.43284
1.43525
1.4375
1.4396
1.44157
1.44341
1.44514
1.44675
1.44826
1.44966
1.45098
1.4522
1.45333
1.45438
1.45534
1.45622
1.45702
1.45774
1.45838
1.45895
1.45945
1.45988
1.46025
1.46057
1.46083
1.46105
1.46123
1.46137
1.46149
1.46158
1.46165
1.4617
1.46174
1.46177
1.4618
1.46181
1.46183
1.46183
1.46184
1.46184
1.46185
1.46185
1.46185
1.46185
1.46185
1.46185
1.46185
1.46185
1.46185
1.46185
1.46185
1.46185
1.46185
1.46185
1.46185
1.46185
1.46185
1.46185
1.46185
1.46185
1.46185
1.46185
1.46185
1.46185
1.46185
1.46184
1.46184
1
1
1.02256
1.05948
1.09803
1.13402
1.16616
1.19425
1.21859
1.23973
1.25819
1.27449
1.28903
1.30212
1.314
1.32485
1.33482
1.34401
1.35251
1.36038
1.36768
1.37447
1.38078
1.38666
1.39214
1.39724
1.402
1.40643
1.41058
1.41444
1.41805
1.42142
1.42457
1.42752
1.43027
1.43284
1.43525
1.4375
1.4396
1.44157
1.44341
1.44514
1.44675
1.44826
1.44966
1.45098
1.4522
1.45333
1.45438
1.45534
1.45622
1.45702
1.45774
1.45838
1.45895
1.45945
1.45988
1.46026
1.46057
1.46083
1.46105
1.46123
1.46137
1.46149
1.46158
1.46165
1.4617
1.46174
1.46178
1.4618
1.46181
1.46183
1.46183
1.46184
1.46184
1.46185
1.46185
1.46185
1.46185
1.46185
1.46185
1.46185
1.46185
1.46185
1.46185
1.46185
1.46185
1.46185
1.46185
1.46185
1.46185
1.46185
1.46185
1.46185
1.46185
1.46185
1.46185
1.46185
1.46185
1.46185
1.46184
1.46184
1
1
1.02627
1.06424
1.10183
1.13558
1.16458
1.18891
1.20913
1.22592
1.23995
1.25177
1.26185
1.27053
1.2781
1.28474
1.29062
1.29585
1.30054
1.30475
1.30855
1.31199
1.31511
1.31795
1.32054
1.32291
1.32508
1.32707
1.3289
1.33058
1.33213
1.33356
1.33488
1.3361
1.33724
1.33829
1.33926
1.34017
1.34101
1.34179
1.34252
1.3432
1.34383
1.34442
1.34497
1.34548
1.34595
1.34638
1.34678
1.34715
1.34748
1.34777
1.34804
1.34827
1.34848
1.34865
1.3488
1.34893
1.34903
1.34912
1.34919
1.34924
1.34928
1.34932
1.34934
1.34936
1.34937
1.34938
1.34939
1.3494
1.3494
1.3494
1.3494
1.34941
1.34941
1.34941
1.34941
1.34941
1.34941
1.34941
1.34941
1.34941
1.34941
1.34941
1.34941
1.34941
1.34941
1.34941
1.34941
1.34941
1.34941
1.34941
1.34941
1.34941
1.34941
1.34941
1.34941
1.34941
1.34941
1.34941
1.3494
1.3494
1
1
1.03305
1.06793
1.0968
1.11906
1.13542
1.14691
1.1546
1.15942
1.16214
1.16336
1.1635
1.16291
1.1618
1.16036
1.1587
1.15691
1.15506
1.15319
1.15133
1.1495
1.14772
1.14601
1.14436
1.14279
1.14129
1.13987
1.13852
1.13725
1.13604
1.13491
1.13384
1.13284
1.13189
1.131
1.13017
1.12938
1.12865
1.12796
1.12731
1.1267
1.12613
1.1256
1.1251
1.12464
1.1242
1.1238
1.12343
1.12308
1.12277
1.12248
1.12222
1.12198
1.12177
1.12159
1.12142
1.12128
1.12116
1.12106
1.12098
1.12091
1.12085
1.1208
1.12077
1.12074
1.12072
1.1207
1.12069
1.12068
1.12067
1.12067
1.12066
1.12066
1.12066
1.12066
1.12066
1.12066
1.12066
1.12066
1.12066
1.12066
1.12066
1.12066
1.12066
1.12066
1.12066
1.12066
1.12066
1.12066
1.12066
1.12066
1.12066
1.12066
1.12066
1.12066
1.12066
1.12066
1.12066
1.12066
1.12066
1.12066
1
1
1.02798
1.03242
1.02466
1.01102
0.994783
0.977789
0.96106
0.94514
0.930292
0.916614
0.904107
0.892723
0.882386
0.873008
0.864501
0.856777
0.849757
0.843366
0.837538
0.832213
0.82734
0.822872
0.818767
0.814991
0.811511
0.8083
0.805333
0.802587
0.800044
0.797686
0.795497
0.793464
0.791574
0.789815
0.788178
0.786652
0.78523
0.783904
0.782666
0.781511
0.780434
0.779429
0.778492
0.777622
0.776814
0.776068
0.775381
0.774753
0.774182
0.773667
0.773207
0.772799
0.772442
0.772132
0.771866
0.77164
0.771451
0.771295
0.771168
0.771065
0.770983
0.770919
0.770869
0.770831
0.770802
0.77078
0.770765
0.770753
0.770745
0.770739
0.770735
0.770732
0.77073
0.770729
0.770728
0.770728
0.770727
0.770727
0.770727
0.770727
0.770727
0.770727
0.770727
0.770727
0.770727
0.770727
0.770727
0.770727
0.770727
0.770727
0.770727
0.770727
0.770727
0.770727
0.770727
0.770727
0.770727
0.770727
0.770738
0.770738
1
1
0.890155
0.775928
0.678686
0.600315
0.539058
0.492138
0.456612
0.429788
0.409424
0.393769
0.381517
0.371723
0.363721
0.357042
0.351361
0.346447
0.342139
0.338321
0.334906
0.33183
0.329044
0.326509
0.324194
0.322073
0.320125
0.318331
0.316677
0.315149
0.313736
0.312426
0.311211
0.310084
0.309036
0.308061
0.307153
0.306308
0.30552
0.304784
0.304098
0.303457
0.302858
0.302299
0.301777
0.301291
0.300839
0.30042
0.300033
0.299679
0.299355
0.299063
0.2988
0.298567
0.298362
0.298184
0.298031
0.2979
0.297791
0.2977
0.297625
0.297565
0.297517
0.297479
0.29745
0.297428
0.29741
0.297398
0.297388
0.297382
0.297377
0.297373
0.297371
0.297369
0.297368
0.297367
0.297367
0.297366
0.297366
0.297366
0.297366
0.297366
0.297366
0.297366
0.297366
0.297366
0.297366
0.297366
0.297366
0.297366
0.297366
0.297366
0.297366
0.297366
0.297365
0.297365
0.297366
0.297365
0.297366
0.297366
0.297367
0.297367
1
-1
-0.890155
-0.775928
-0.678686
-0.600315
-0.539058
-0.492138
-0.456612
-0.429788
-0.409424
-0.393769
-0.381517
-0.371723
-0.363721
-0.357042
-0.351361
-0.346447
-0.342139
-0.338321
-0.334906
-0.33183
-0.329044
-0.326509
-0.324194
-0.322073
-0.320125
-0.318331
-0.316677
-0.315149
-0.313736
-0.312426
-0.311211
-0.310084
-0.309036
-0.308061
-0.307153
-0.306308
-0.30552
-0.304784
-0.304098
-0.303457
-0.302858
-0.302299
-0.301777
-0.301291
-0.300839
-0.30042
-0.300033
-0.299679
-0.299355
-0.299063
-0.2988
-0.298567
-0.298362
-0.298184
-0.298031
-0.2979
-0.297791
-0.2977
-0.297625
-0.297565
-0.297517
-0.297479
-0.29745
-0.297428
-0.29741
-0.297398
-0.297388
-0.297382
-0.297377
-0.297373
-0.297371
-0.297369
-0.297368
-0.297367
-0.297367
-0.297366
-0.297366
-0.297366
-0.297366
-0.297366
-0.297366
-0.297366
-0.297366
-0.297366
-0.297366
-0.297366
-0.297366
-0.297366
-0.297366
-0.297366
-0.297366
-0.297366
-0.297365
-0.297365
-0.297366
-0.297365
-0.297366
-0.297366
-0.297367
-0.297367
-1
