# vtk DataFile Version 2.0
FlowField
ASCII
DATASET STRUCTURED_GRID
DIMENSIONS 102 12 1 
POINTS 1224 double
0 0 0
0.3 0 0
0.6 0 0
0.9 0 0
1.2 0 0
1.5 0 0
1.8 0 0
2.1 0 0
2.4 0 0
2.7 0 0
3 0 0
3.3 0 0
3.6 0 0
3.9 0 0
4.2 0 0
4.5 0 0
4.8 0 0
5.1 0 0
5.4 0 0
5.7 0 0
6 0 0
6.3 0 0
6.6 0 0
6.9 0 0
7.2 0 0
7.5 0 0
7.8 0 0
8.1 0 0
8.4 0 0
8.7 0 0
9 0 0
9.3 0 0
9.6 0 0
9.9 0 0
10.2 0 0
10.5 0 0
10.8 0 0
11.1 0 0
11.4 0 0
11.7 0 0
12 0 0
12.3 0 0
12.6 0 0
12.9 0 0
13.2 0 0
13.5 0 0
13.8 0 0
14.1 0 0
14.4 0 0
14.7 0 0
15 0 0
15.3 0 0
15.6 0 0
15.9 0 0
16.2 0 0
16.5 0 0
16.8 0 0
17.1 0 0
17.4 0 0
17.7 0 0
18 0 0
18.3 0 0
18.6 0 0
18.9 0 0
19.2 0 0
19.5 0 0
19.8 0 0
20.1 0 0
20.4 0 0
20.7 0 0
21 0 0
21.3 0 0
21.6 0 0
21.9 0 0
22.2 0 0
22.5 0 0
22.8 0 0
23.1 0 0
23.4 0 0
23.7 0 0
24 0 0
24.3 0 0
24.6 0 0
24.9 0 0
25.2 0 0
25.5 0 0
25.8 0 0
26.1 0 0
26.4 0 0
26.7 0 0
27 0 0
27.3 0 0
27.6 0 0
27.9 0 0
28.2 0 0
28.5 0 0
28.8 0 0
29.1 0 0
29.4 0 0
29.7 0 0
30 0 0
30.3 0 0
0 0.1 0
0.3 0.1 0
0.6 0.1 0
0.9 0.1 0
1.2 0.1 0
1.5 0.1 0
1.8 0.1 0
2.1 0.1 0
2.4 0.1 0
2.7 0.1 0
3 0.1 0
3.3 0.1 0
3.6 0.1 0
3.9 0.1 0
4.2 0.1 0
4.5 0.1 0
4.8 0.1 0
5.1 0.1 0
5.4 0.1 0
5.7 0.1 0
6 0.1 0
6.3 0.1 0
6.6 0.1 0
6.9 0.1 0
7.2 0.1 0
7.5 0.1 0
7.8 0.1 0
8.1 0.1 0
8.4 0.1 0
8.7 0.1 0
9 0.1 0
9.3 0.1 0
9.6 0.1 0
9.9 0.1 0
10.2 0.1 0
10.5 0.1 0
10.8 0.1 0
11.1 0.1 0
11.4 0.1 0
11.7 0.1 0
12 0.1 0
12.3 0.1 0
12.6 0.1 0
12.9 0.1 0
13.2 0.1 0
13.5 0.1 0
13.8 0.1 0
14.1 0.1 0
14.4 0.1 0
14.7 0.1 0
15 0.1 0
15.3 0.1 0
15.6 0.1 0
15.9 0.1 0
16.2 0.1 0
16.5 0.1 0
16.8 0.1 0
17.1 0.1 0
17.4 0.1 0
17.7 0.1 0
18 0.1 0
18.3 0.1 0
18.6 0.1 0
18.9 0.1 0
19.2 0.1 0
19.5 0.1 0
19.8 0.1 0
20.1 0.1 0
20.4 0.1 0
20.7 0.1 0
21 0.1 0
21.3 0.1 0
21.6 0.1 0
21.9 0.1 0
22.2 0.1 0
22.5 0.1 0
22.8 0.1 0
23.1 0.1 0
23.4 0.1 0
23.7 0.1 0
24 0.1 0
24.3 0.1 0
24.6 0.1 0
24.9 0.1 0
25.2 0.1 0
25.5 0.1 0
25.8 0.1 0
26.1 0.1 0
26.4 0.1 0
26.7 0.1 0
27 0.1 0
27.3 0.1 0
27.6 0.1 0
27.9 0.1 0
28.2 0.1 0
28.5 0.1 0
28.8 0.1 0
29.1 0.1 0
29.4 0.1 0
29.7 0.1 0
30 0.1 0
30.3 0.1 0
0 0.2 0
0.3 0.2 0
0.6 0.2 0
0.9 0.2 0
1.2 0.2 0
1.5 0.2 0
1.8 0.2 0
2.1 0.2 0
2.4 0.2 0
2.7 0.2 0
3 0.2 0
3.3 0.2 0
3.6 0.2 0
3.9 0.2 0
4.2 0.2 0
4.5 0.2 0
4.8 0.2 0
5.1 0.2 0
5.4 0.2 0
5.7 0.2 0
6 0.2 0
6.3 0.2 0
6.6 0.2 0
6.9 0.2 0
7.2 0.2 0
7.5 0.2 0
7.8 0.2 0
8.1 0.2 0
8.4 0.2 0
8.7 0.2 0
9 0.2 0
9.3 0.2 0
9.6 0.2 0
9.9 0.2 0
10.2 0.2 0
10.5 0.2 0
10.8 0.2 0
11.1 0.2 0
11.4 0.2 0
11.7 0.2 0
12 0.2 0
12.3 0.2 0
12.6 0.2 0
12.9 0.2 0
13.2 0.2 0
13.5 0.2 0
13.8 0.2 0
14.1 0.2 0
14.4 0.2 0
14.7 0.2 0
15 0.2 0
15.3 0.2 0
15.6 0.2 0
15.9 0.2 0
16.2 0.2 0
16.5 0.2 0
16.8 0.2 0
17.1 0.2 0
17.4 0.2 0
17.7 0.2 0
18 0.2 0
18.3 0.2 0
18.6 0.2 0
18.9 0.2 0
19.2 0.2 0
19.5 0.2 0
19.8 0.2 0
20.1 0.2 0
20.4 0.2 0
20.7 0.2 0
21 0.2 0
21.3 0.2 0
21.6 0.2 0
21.9 0.2 0
22.2 0.2 0
22.5 0.2 0
22.8 0.2 0
23.1 0.2 0
23.4 0.2 0
23.7 0.2 0
24 0.2 0
24.3 0.2 0
24.6 0.2 0
24.9 0.2 0
25.2 0.2 0
25.5 0.2 0
25.8 0.2 0
26.1 0.2 0
26.4 0.2 0
26.7 0.2 0
27 0.2 0
27.3 0.2 0
27.6 0.2 0
27.9 0.2 0
28.2 0.2 0
28.5 0.2 0
28.8 0.2 0
29.1 0.2 0
29.4 0.2 0
29.7 0.2 0
30 0.2 0
30.3 0.2 0
0 0.3 0
0.3 0.3 0
0.6 0.3 0
0.9 0.3 0
1.2 0.3 0
1.5 0.3 0
1.8 0.3 0
2.1 0.3 0
2.4 0.3 0
2.7 0.3 0
3 0.3 0
3.3 0.3 0
3.6 0.3 0
3.9 0.3 0
4.2 0.3 0
4.5 0.3 0
4.8 0.3 0
5.1 0.3 0
5.4 0.3 0
5.7 0.3 0
6 0.3 0
6.3 0.3 0
6.6 0.3 0
6.9 0.3 0
7.2 0.3 0
7.5 0.3 0
7.8 0.3 0
8.1 0.3 0
8.4 0.3 0
8.7 0.3 0
9 0.3 0
9.3 0.3 0
9.6 0.3 0
9.9 0.3 0
10.2 0.3 0
10.5 0.3 0
10.8 0.3 0
11.1 0.3 0
11.4 0.3 0
11.7 0.3 0
12 0.3 0
12.3 0.3 0
12.6 0.3 0
12.9 0.3 0
13.2 0.3 0
13.5 0.3 0
13.8 0.3 0
14.1 0.3 0
14.4 0.3 0
14.7 0.3 0
15 0.3 0
15.3 0.3 0
15.6 0.3 0
15.9 0.3 0
16.2 0.3 0
16.5 0.3 0
16.8 0.3 0
17.1 0.3 0
17.4 0.3 0
17.7 0.3 0
18 0.3 0
18.3 0.3 0
18.6 0.3 0
18.9 0.3 0
19.2 0.3 0
19.5 0.3 0
19.8 0.3 0
20.1 0.3 0
20.4 0.3 0
20.7 0.3 0
21 0.3 0
21.3 0.3 0
21.6 0.3 0
21.9 0.3 0
22.2 0.3 0
22.5 0.3 0
22.8 0.3 0
23.1 0.3 0
23.4 0.3 0
23.7 0.3 0
24 0.3 0
24.3 0.3 0
24.6 0.3 0
24.9 0.3 0
25.2 0.3 0
25.5 0.3 0
25.8 0.3 0
26.1 0.3 0
26.4 0.3 0
26.7 0.3 0
27 0.3 0
27.3 0.3 0
27.6 0.3 0
27.9 0.3 0
28.2 0.3 0
28.5 0.3 0
28.8 0.3 0
29.1 0.3 0
29.4 0.3 0
29.7 0.3 0
30 0.3 0
30.3 0.3 0
0 0.4 0
0.3 0.4 0
0.6 0.4 0
0.9 0.4 0
1.2 0.4 0
1.5 0.4 0
1.8 0.4 0
2.1 0.4 0
2.4 0.4 0
2.7 0.4 0
3 0.4 0
3.3 0.4 0
3.6 0.4 0
3.9 0.4 0
4.2 0.4 0
4.5 0.4 0
4.8 0.4 0
5.1 0.4 0
5.4 0.4 0
5.7 0.4 0
6 0.4 0
6.3 0.4 0
6.6 0.4 0
6.9 0.4 0
7.2 0.4 0
7.5 0.4 0
7.8 0.4 0
8.1 0.4 0
8.4 0.4 0
8.7 0.4 0
9 0.4 0
9.3 0.4 0
9.6 0.4 0
9.9 0.4 0
10.2 0.4 0
10.5 0.4 0
10.8 0.4 0
11.1 0.4 0
11.4 0.4 0
11.7 0.4 0
12 0.4 0
12.3 0.4 0
12.6 0.4 0
12.9 0.4 0
13.2 0.4 0
13.5 0.4 0
13.8 0.4 0
14.1 0.4 0
14.4 0.4 0
14.7 0.4 0
15 0.4 0
15.3 0.4 0
15.6 0.4 0
15.9 0.4 0
16.2 0.4 0
16.5 0.4 0
16.8 0.4 0
17.1 0.4 0
17.4 0.4 0
17.7 0.4 0
18 0.4 0
18.3 0.4 0
18.6 0.4 0
18.9 0.4 0
19.2 0.4 0
19.5 0.4 0
19.8 0.4 0
20.1 0.4 0
20.4 0.4 0
20.7 0.4 0
21 0.4 0
21.3 0.4 0
21.6 0.4 0
21.9 0.4 0
22.2 0.4 0
22.5 0.4 0
22.8 0.4 0
23.1 0.4 0
23.4 0.4 0
23.7 0.4 0
24 0.4 0
24.3 0.4 0
24.6 0.4 0
24.9 0.4 0
25.2 0.4 0
25.5 0.4 0
25.8 0.4 0
26.1 0.4 0
26.4 0.4 0
26.7 0.4 0
27 0.4 0
27.3 0.4 0
27.6 0.4 0
27.9 0.4 0
28.2 0.4 0
28.5 0.4 0
28.8 0.4 0
29.1 0.4 0
29.4 0.4 0
29.7 0.4 0
30 0.4 0
30.3 0.4 0
0 0.5 0
0.3 0.5 0
0.6 0.5 0
0.9 0.5 0
1.2 0.5 0
1.5 0.5 0
1.8 0.5 0
2.1 0.5 0
2.4 0.5 0
2.7 0.5 0
3 0.5 0
3.3 0.5 0
3.6 0.5 0
3.9 0.5 0
4.2 0.5 0
4.5 0.5 0
4.8 0.5 0
5.1 0.5 0
5.4 0.5 0
5.7 0.5 0
6 0.5 0
6.3 0.5 0
6.6 0.5 0
6.9 0.5 0
7.2 0.5 0
7.5 0.5 0
7.8 0.5 0
8.1 0.5 0
8.4 0.5 0
8.7 0.5 0
9 0.5 0
9.3 0.5 0
9.6 0.5 0
9.9 0.5 0
10.2 0.5 0
10.5 0.5 0
10.8 0.5 0
11.1 0.5 0
11.4 0.5 0
11.7 0.5 0
12 0.5 0
12.3 0.5 0
12.6 0.5 0
12.9 0.5 0
13.2 0.5 0
13.5 0.5 0
13.8 0.5 0
14.1 0.5 0
14.4 0.5 0
14.7 0.5 0
15 0.5 0
15.3 0.5 0
15.6 0.5 0
15.9 0.5 0
16.2 0.5 0
16.5 0.5 0
16.8 0.5 0
17.1 0.5 0
17.4 0.5 0
17.7 0.5 0
18 0.5 0
18.3 0.5 0
18.6 0.5 0
18.9 0.5 0
19.2 0.5 0
19.5 0.5 0
19.8 0.5 0
20.1 0.5 0
20.4 0.5 0
20.7 0.5 0
21 0.5 0
21.3 0.5 0
21.6 0.5 0
21.9 0.5 0
22.2 0.5 0
22.5 0.5 0
22.8 0.5 0
23.1 0.5 0
23.4 0.5 0
23.7 0.5 0
24 0.5 0
24.3 0.5 0
24.6 0.5 0
24.9 0.5 0
25.2 0.5 0
25.5 0.5 0
25.8 0.5 0
26.1 0.5 0
26.4 0.5 0
26.7 0.5 0
27 0.5 0
27.3 0.5 0
27.6 0.5 0
27.9 0.5 0
28.2 0.5 0
28.5 0.5 0
28.8 0.5 0
29.1 0.5 0
29.4 0.5 0
29.7 0.5 0
30 0.5 0
30.3 0.5 0
0 0.6 0
0.3 0.6 0
0.6 0.6 0
0.9 0.6 0
1.2 0.6 0
1.5 0.6 0
1.8 0.6 0
2.1 0.6 0
2.4 0.6 0
2.7 0.6 0
3 0.6 0
3.3 0.6 0
3.6 0.6 0
3.9 0.6 0
4.2 0.6 0
4.5 0.6 0
4.8 0.6 0
5.1 0.6 0
5.4 0.6 0
5.7 0.6 0
6 0.6 0
6.3 0.6 0
6.6 0.6 0
6.9 0.6 0
7.2 0.6 0
7.5 0.6 0
7.8 0.6 0
8.1 0.6 0
8.4 0.6 0
8.7 0.6 0
9 0.6 0
9.3 0.6 0
9.6 0.6 0
9.9 0.6 0
10.2 0.6 0
10.5 0.6 0
10.8 0.6 0
11.1 0.6 0
11.4 0.6 0
11.7 0.6 0
12 0.6 0
12.3 0.6 0
12.6 0.6 0
12.9 0.6 0
13.2 0.6 0
13.5 0.6 0
13.8 0.6 0
14.1 0.6 0
14.4 0.6 0
14.7 0.6 0
15 0.6 0
15.3 0.6 0
15.6 0.6 0
15.9 0.6 0
16.2 0.6 0
16.5 0.6 0
16.8 0.6 0
17.1 0.6 0
17.4 0.6 0
17.7 0.6 0
18 0.6 0
18.3 0.6 0
18.6 0.6 0
18.9 0.6 0
19.2 0.6 0
19.5 0.6 0
19.8 0.6 0
20.1 0.6 0
20.4 0.6 0
20.7 0.6 0
21 0.6 0
21.3 0.6 0
21.6 0.6 0
21.9 0.6 0
22.2 0.6 0
22.5 0.6 0
22.8 0.6 0
23.1 0.6 0
23.4 0.6 0
23.7 0.6 0
24 0.6 0
24.3 0.6 0
24.6 0.6 0
24.9 0.6 0
25.2 0.6 0
25.5 0.6 0
25.8 0.6 0
26.1 0.6 0
26.4 0.6 0
26.7 0.6 0
27 0.6 0
27.3 0.6 0
27.6 0.6 0
27.9 0.6 0
28.2 0.6 0
28.5 0.6 0
28.8 0.6 0
29.1 0.6 0
29.4 0.6 0
29.7 0.6 0
30 0.6 0
30.3 0.6 0
0 0.7 0
0.3 0.7 0
0.6 0.7 0
0.9 0.7 0
1.2 0.7 0
1.5 0.7 0
1.8 0.7 0
2.1 0.7 0
2.4 0.7 0
2.7 0.7 0
3 0.7 0
3.3 0.7 0
3.6 0.7 0
3.9 0.7 0
4.2 0.7 0
4.5 0.7 0
4.8 0.7 0
5.1 0.7 0
5.4 0.7 0
5.7 0.7 0
6 0.7 0
6.3 0.7 0
6.6 0.7 0
6.9 0.7 0
7.2 0.7 0
7.5 0.7 0
7.8 0.7 0
8.1 0.7 0
8.4 0.7 0
8.7 0.7 0
9 0.7 0
9.3 0.7 0
9.6 0.7 0
9.9 0.7 0
10.2 0.7 0
10.5 0.7 0
10.8 0.7 0
11.1 0.7 0
11.4 0.7 0
11.7 0.7 0
12 0.7 0
12.3 0.7 0
12.6 0.7 0
12.9 0.7 0
13.2 0.7 0
13.5 0.7 0
13.8 0.7 0
14.1 0.7 0
14.4 0.7 0
14.7 0.7 0
15 0.7 0
15.3 0.7 0
15.6 0.7 0
15.9 0.7 0
16.2 0.7 0
16.5 0.7 0
16.8 0.7 0
17.1 0.7 0
17.4 0.7 0
17.7 0.7 0
18 0.7 0
18.3 0.7 0
18.6 0.7 0
18.9 0.7 0
19.2 0.7 0
19.5 0.7 0
19.8 0.7 0
20.1 0.7 0
20.4 0.7 0
20.7 0.7 0
21 0.7 0
21.3 0.7 0
21.6 0.7 0
21.9 0.7 0
22.2 0.7 0
22.5 0.7 0
22.8 0.7 0
23.1 0.7 0
23.4 0.7 0
23.7 0.7 0
24 0.7 0
24.3 0.7 0
24.6 0.7 0
24.9 0.7 0
25.2 0.7 0
25.5 0.7 0
25.8 0.7 0
26.1 0.7 0
26.4 0.7 0
26.7 0.7 0
27 0.7 0
27.3 0.7 0
27.6 0.7 0
27.9 0.7 0
28.2 0.7 0
28.5 0.7 0
28.8 0.7 0
29.1 0.7 0
29.4 0.7 0
29.7 0.7 0
30 0.7 0
30.3 0.7 0
0 0.8 0
0.3 0.8 0
0.6 0.8 0
0.9 0.8 0
1.2 0.8 0
1.5 0.8 0
1.8 0.8 0
2.1 0.8 0
2.4 0.8 0
2.7 0.8 0
3 0.8 0
3.3 0.8 0
3.6 0.8 0
3.9 0.8 0
4.2 0.8 0
4.5 0.8 0
4.8 0.8 0
5.1 0.8 0
5.4 0.8 0
5.7 0.8 0
6 0.8 0
6.3 0.8 0
6.6 0.8 0
6.9 0.8 0
7.2 0.8 0
7.5 0.8 0
7.8 0.8 0
8.1 0.8 0
8.4 0.8 0
8.7 0.8 0
9 0.8 0
9.3 0.8 0
9.6 0.8 0
9.9 0.8 0
10.2 0.8 0
10.5 0.8 0
10.8 0.8 0
11.1 0.8 0
11.4 0.8 0
11.7 0.8 0
12 0.8 0
12.3 0.8 0
12.6 0.8 0
12.9 0.8 0
13.2 0.8 0
13.5 0.8 0
13.8 0.8 0
14.1 0.8 0
14.4 0.8 0
14.7 0.8 0
15 0.8 0
15.3 0.8 0
15.6 0.8 0
15.9 0.8 0
16.2 0.8 0
16.5 0.8 0
16.8 0.8 0
17.1 0.8 0
17.4 0.8 0
17.7 0.8 0
18 0.8 0
18.3 0.8 0
18.6 0.8 0
18.9 0.8 0
19.2 0.8 0
19.5 0.8 0
19.8 0.8 0
20.1 0.8 0
20.4 0.8 0
20.7 0.8 0
21 0.8 0
21.3 0.8 0
21.6 0.8 0
21.9 0.8 0
22.2 0.8 0
22.5 0.8 0
22.8 0.8 0
23.1 0.8 0
23.4 0.8 0
23.7 0.8 0
24 0.8 0
24.3 0.8 0
24.6 0.8 0
24.9 0.8 0
25.2 0.8 0
25.5 0.8 0
25.8 0.8 0
26.1 0.8 0
26.4 0.8 0
26.7 0.8 0
27 0.8 0
27.3 0.8 0
27.6 0.8 0
27.9 0.8 0
28.2 0.8 0
28.5 0.8 0
28.8 0.8 0
29.1 0.8 0
29.4 0.8 0
29.7 0.8 0
30 0.8 0
30.3 0.8 0
0 0.9 0
0.3 0.9 0
0.6 0.9 0
0.9 0.9 0
1.2 0.9 0
1.5 0.9 0
1.8 0.9 0
2.1 0.9 0
2.4 0.9 0
2.7 0.9 0
3 0.9 0
3.3 0.9 0
3.6 0.9 0
3.9 0.9 0
4.2 0.9 0
4.5 0.9 0
4.8 0.9 0
5.1 0.9 0
5.4 0.9 0
5.7 0.9 0
6 0.9 0
6.3 0.9 0
6.6 0.9 0
6.9 0.9 0
7.2 0.9 0
7.5 0.9 0
7.8 0.9 0
8.1 0.9 0
8.4 0.9 0
8.7 0.9 0
9 0.9 0
9.3 0.9 0
9.6 0.9 0
9.9 0.9 0
10.2 0.9 0
10.5 0.9 0
10.8 0.9 0
11.1 0.9 0
11.4 0.9 0
11.7 0.9 0
12 0.9 0
12.3 0.9 0
12.6 0.9 0
12.9 0.9 0
13.2 0.9 0
13.5 0.9 0
13.8 0.9 0
14.1 0.9 0
14.4 0.9 0
14.7 0.9 0
15 0.9 0
15.3 0.9 0
15.6 0.9 0
15.9 0.9 0
16.2 0.9 0
16.5 0.9 0
16.8 0.9 0
17.1 0.9 0
17.4 0.9 0
17.7 0.9 0
18 0.9 0
18.3 0.9 0
18.6 0.9 0
18.9 0.9 0
19.2 0.9 0
19.5 0.9 0
19.8 0.9 0
20.1 0.9 0
20.4 0.9 0
20.7 0.9 0
21 0.9 0
21.3 0.9 0
21.6 0.9 0
21.9 0.9 0
22.2 0.9 0
22.5 0.9 0
22.8 0.9 0
23.1 0.9 0
23.4 0.9 0
23.7 0.9 0
24 0.9 0
24.3 0.9 0
24.6 0.9 0
24.9 0.9 0
25.2 0.9 0
25.5 0.9 0
25.8 0.9 0
26.1 0.9 0
26.4 0.9 0
26.7 0.9 0
27 0.9 0
27.3 0.9 0
27.6 0.9 0
27.9 0.9 0
28.2 0.9 0
28.5 0.9 0
28.8 0.9 0
29.1 0.9 0
29.4 0.9 0
29.7 0.9 0
30 0.9 0
30.3 0.9 0
0 1 0
0.3 1 0
0.6 1 0
0.9 1 0
1.2 1 0
1.5 1 0
1.8 1 0
2.1 1 0
2.4 1 0
2.7 1 0
3 1 0
3.3 1 0
3.6 1 0
3.9 1 0
4.2 1 0
4.5 1 0
4.8 1 0
5.1 1 0
5.4 1 0
5.7 1 0
6 1 0
6.3 1 0
6.6 1 0
6.9 1 0
7.2 1 0
7.5 1 0
7.8 1 0
8.1 1 0
8.4 1 0
8.7 1 0
9 1 0
9.3 1 0
9.6 1 0
9.9 1 0
10.2 1 0
10.5 1 0
10.8 1 0
11.1 1 0
11.4 1 0
11.7 1 0
12 1 0
12.3 1 0
12.6 1 0
12.9 1 0
13.2 1 0
13.5 1 0
13.8 1 0
14.1 1 0
14.4 1 0
14.7 1 0
15 1 0
15.3 1 0
15.6 1 0
15.9 1 0
16.2 1 0
16.5 1 0
16.8 1 0
17.1 1 0
17.4 1 0
17.7 1 0
18 1 0
18.3 1 0
18.6 1 0
18.9 1 0
19.2 1 0
19.5 1 0
19.8 1 0
20.1 1 0
20.4 1 0
20.7 1 0
21 1 0
21.3 1 0
21.6 1 0
21.9 1 0
22.2 1 0
22.5 1 0
22.8 1 0
23.1 1 0
23.4 1 0
23.7 1 0
24 1 0
24.3 1 0
24.6 1 0
24.9 1 0
25.2 1 0
25.5 1 0
25.8 1 0
26.1 1 0
26.4 1 0
26.7 1 0
27 1 0
27.3 1 0
27.6 1 0
27.9 1 0
28.2 1 0
28.5 1 0
28.8 1 0
29.1 1 0
29.4 1 0
29.7 1 0
30 1 0
30.3 1 0
0 1.1 0
0.3 1.1 0
0.6 1.1 0
0.9 1.1 0
1.2 1.1 0
1.5 1.1 0
1.8 1.1 0
2.1 1.1 0
2.4 1.1 0
2.7 1.1 0
3 1.1 0
3.3 1.1 0
3.6 1.1 0
3.9 1.1 0
4.2 1.1 0
4.5 1.1 0
4.8 1.1 0
5.1 1.1 0
5.4 1.1 0
5.7 1.1 0
6 1.1 0
6.3 1.1 0
6.6 1.1 0
6.9 1.1 0
7.2 1.1 0
7.5 1.1 0
7.8 1.1 0
8.1 1.1 0
8.4 1.1 0
8.7 1.1 0
9 1.1 0
9.3 1.1 0
9.6 1.1 0
9.9 1.1 0
10.2 1.1 0
10.5 1.1 0
10.8 1.1 0
11.1 1.1 0
11.4 1.1 0
11.7 1.1 0
12 1.1 0
12.3 1.1 0
12.6 1.1 0
12.9 1.1 0
13.2 1.1 0
13.5 1.1 0
13.8 1.1 0
14.1 1.1 0
14.4 1.1 0
14.7 1.1 0
15 1.1 0
15.3 1.1 0
15.6 1.1 0
15.9 1.1 0
16.2 1.1 0
16.5 1.1 0
16.8 1.1 0
17.1 1.1 0
17.4 1.1 0
17.7 1.1 0
18 1.1 0
18.3 1.1 0
18.6 1.1 0
18.9 1.1 0
19.2 1.1 0
19.5 1.1 0
19.8 1.1 0
20.1 1.1 0
20.4 1.1 0
20.7 1.1 0
21 1.1 0
21.3 1.1 0
21.6 1.1 0
21.9 1.1 0
22.2 1.1 0
22.5 1.1 0
22.8 1.1 0
23.1 1.1 0
23.4 1.1 0
23.7 1.1 0
24 1.1 0
24.3 1.1 0
24.6 1.1 0
24.9 1.1 0
25.2 1.1 0
25.5 1.1 0
25.8 1.1 0
26.1 1.1 0
26.4 1.1 0
26.7 1.1 0
27 1.1 0
27.3 1.1 0
27.6 1.1 0
27.9 1.1 0
28.2 1.1 0
28.5 1.1 0
28.8 1.1 0
29.1 1.1 0
29.4 1.1 0
29.7 1.1 0
30 1.1 0
30.3 1.1 0

POINT_DATA 1224

VECTORS velocity double
LOOKUP_TABLE default
-1 0 0
-0.948126 0 0
-0.933137 0 0
-0.930323 0 0
-0.929857 0 0
-0.92978 0 0
-0.929767 0 0
-0.929766 0 0
-0.929766 0 0
-0.929767 0 0
-0.929768 0 0
-0.929768 0 0
-0.929769 0 0
-0.92977 0 0
-0.929771 0 0
-0.929771 0 0
-0.929772 0 0
-0.929772 0 0
-0.929773 0 0
-0.929774 0 0
-0.929774 0 0
-0.929775 0 0
-0.929775 0 0
-0.929776 0 0
-0.929776 0 0
-0.929777 0 0
-0.929777 0 0
-0.929777 0 0
-0.929778 0 0
-0.929778 0 0
-0.929778 0 0
-0.929779 0 0
-0.929779 0 0
-0.929779 0 0
-0.929779 0 0
-0.929779 0 0
-0.929779 0 0
-0.929779 0 0
-0.929779 0 0
-0.929779 0 0
-0.929779 0 0
-0.929779 0 0
-0.929779 0 0
-0.929779 0 0
-0.929778 0 0
-0.929778 0 0
-0.929778 0 0
-0.929777 0 0
-0.929777 0 0
-0.929777 0 0
-0.929776 0 0
-0.929776 0 0
-0.929775 0 0
-0.929775 0 0
-0.929774 0 0
-0.929773 0 0
-0.929773 0 0
-0.929772 0 0
-0.929771 0 0
-0.92977 0 0
-0.92977 0 0
-0.929769 0 0
-0.929768 0 0
-0.929767 0 0
-0.929766 0 0
-0.929765 0 0
-0.929764 0 0
-0.929763 0 0
-0.929762 0 0
-0.929761 0 0
-0.92976 0 0
-0.929759 0 0
-0.929757 0 0
-0.929756 0 0
-0.929755 0 0
-0.929754 0 0
-0.929752 0 0
-0.929751 0 0
-0.92975 0 0
-0.929748 0 0
-0.929747 0 0
-0.929746 0 0
-0.929744 0 0
-0.929743 0 0
-0.929741 0 0
-0.92974 0 0
-0.929739 0 0
-0.929737 0 0
-0.929736 0 0
-0.929734 0 0
-0.929733 0 0
-0.929731 0 0
-0.92973 0 0
-0.929728 0 0
-0.929727 0 0
-0.929726 0 0
-0.929729 0 0
-0.929751 0 0
-0.929876 0 0
-0.931078 0 0
-0.931078 0 0
-1 0 0
1 -0.0172922 0
0.948126 0.0172922 0
0.933137 0.00499676 0
0.930323 0.000938685 0
0.929857 0.000155918 0
0.92978 2.63444e-05 0
0.929767 4.88453e-06 0
0.929766 1.1596e-06 0
0.929766 4.91288e-07 0
0.929767 3.673e-07 0
0.929768 3.41159e-07 0
0.929768 3.32269e-07 0
0.929769 3.25978e-07 0
0.92977 3.19641e-07 0
0.929771 3.12793e-07 0
0.929771 3.05364e-07 0
0.929772 2.9735e-07 0
0.929772 2.8876e-07 0
0.929773 2.79602e-07 0
0.929774 2.69887e-07 0
0.929774 2.59626e-07 0
0.929775 2.48828e-07 0
0.929775 2.37507e-07 0
0.929776 2.25673e-07 0
0.929776 2.1334e-07 0
0.929777 2.00513e-07 0
0.929777 1.87218e-07 0
0.929777 1.73465e-07 0
0.929778 1.59268e-07 0
0.929778 1.4464e-07 0
0.929778 1.29598e-07 0
0.929779 1.14156e-07 0
0.929779 9.8331e-08 0
0.929779 8.21387e-08 0
0.929779 6.55956e-08 0
0.929779 4.87187e-08 0
0.929779 3.15252e-08 0
0.929779 1.40323e-08 0
0.929779 -3.7421e-09 0
0.929779 -2.17803e-08 0
0.929779 -4.00643e-08 0
0.929779 -5.85758e-08 0
0.929779 -7.72963e-08 0
0.929779 -9.62075e-08 0
0.929778 -1.15291e-07 0
0.929778 -1.34544e-07 0
0.929778 -1.53927e-07 0
0.929777 -1.73415e-07 0
0.929777 -1.92999e-07 0
0.929777 -2.12825e-07 0
0.929776 -2.32662e-07 0
0.929776 -2.52608e-07 0
0.929775 -2.72526e-07 0
0.929775 -2.92338e-07 0
0.929774 -3.121e-07 0
0.929773 -3.31849e-07 0
0.929773 -3.51537e-07 0
0.929772 -3.7116e-07 0
0.929771 -3.90678e-07 0
0.92977 -4.10062e-07 0
0.92977 -4.29305e-07 0
0.929769 -4.48396e-07 0
0.929768 -4.67318e-07 0
0.929767 -4.86052e-07 0
0.929766 -5.04582e-07 0
0.929765 -5.22889e-07 0
0.929764 -5.40955e-07 0
0.929763 -5.58764e-07 0
0.929762 -5.76298e-07 0
0.929761 -5.9354e-07 0
0.92976 -6.10474e-07 0
0.929759 -6.27084e-07 0
0.929757 -6.43353e-07 0
0.929756 -6.59265e-07 0
0.929755 -6.74806e-07 0
0.929754 -6.8996e-07 0
0.929752 -7.04713e-07 0
0.929751 -7.19049e-07 0
0.92975 -7.32956e-07 0
0.929748 -7.46424e-07 0
0.929747 -7.5943e-07 0
0.929746 -7.71966e-07 0
0.929744 -7.8402e-07 0
0.929743 -7.9558e-07 0
0.929741 -8.06634e-07 0
0.92974 -8.17172e-07 0
0.929739 -8.27184e-07 0
0.929737 -8.36658e-07 0
0.929736 -8.45588e-07 0
0.929734 -8.53971e-07 0
0.929733 -8.61832e-07 0
0.929731 -8.69347e-07 0
0.92973 -8.77469e-07 0
0.929728 -8.91256e-07 0
0.929727 -9.37495e-07 0
0.929726 -1.15797e-06 0
0.929729 -2.31857e-06 0
0.929751 -8.72429e-06 0
0.929876 -4.31525e-05 0
0.931078 -0.000401987 0
0.931078 -0.00156079 0
1 -0.00156079 0
1 -0.0120281 0
1.01579 0.0120281 0
1.01683 0.00465011 0
1.01637 0.00109196 0
1.0162 0.000215572 0
1.01615 4.0448e-05 0
1.01615 7.75248e-06 0
1.01615 1.7384e-06 0
1.01615 6.31104e-07 0
1.01615 4.24892e-07 0
1.01615 3.83482e-07 0
1.01615 3.71561e-07 0
1.01615 3.64386e-07 0
1.01615 3.57491e-07 0
1.01615 3.50095e-07 0
1.01615 3.42076e-07 0
1.01615 3.33426e-07 0
1.01615 3.24153e-07 0
1.01615 3.14268e-07 0
1.01615 3.03783e-07 0
1.01615 2.92708e-07 0
1.01615 2.81055e-07 0
1.01615 2.68838e-07 0
1.01615 2.56068e-07 0
1.01615 2.4276e-07 0
1.01615 2.28929e-07 0
1.01615 2.14587e-07 0
1.01615 1.9975e-07 0
1.01615 1.84434e-07 0
1.01615 1.68655e-07 0
1.01615 1.52428e-07 0
1.01615 1.35772e-07 0
1.01615 1.18702e-07 0
1.01615 1.01237e-07 0
1.01615 8.33946e-08 0
1.01615 6.51922e-08 0
1.01615 4.66487e-08 0
1.01615 2.77828e-08 0
1.01615 8.6136e-09 0
1.01615 -1.08398e-08 0
1.01615 -3.05579e-08 0
1.01615 -5.05211e-08 0
1.01615 -7.07096e-08 0
1.01615 -9.11034e-08 0
1.01615 -1.11683e-07 0
1.01615 -1.32426e-07 0
1.01615 -1.53315e-07 0
1.01615 -1.74329e-07 0
1.01615 -1.95453e-07 0
1.01615 -2.16647e-07 0
1.01615 -2.37914e-07 0
1.01615 -2.59214e-07 0
1.01615 -2.80535e-07 0
1.01615 -3.01864e-07 0
1.01615 -3.23174e-07 0
1.01615 -3.4444e-07 0
1.01615 -3.65647e-07 0
1.01615 -3.86772e-07 0
1.01615 -4.07796e-07 0
1.01615 -4.287e-07 0
1.01614 -4.49463e-07 0
1.01614 -4.70063e-07 0
1.01614 -4.90483e-07 0
1.01614 -5.10703e-07 0
1.01614 -5.30703e-07 0
1.01614 -5.50463e-07 0
1.01614 -5.69966e-07 0
1.01614 -5.89192e-07 0
1.01614 -6.08124e-07 0
1.01614 -6.26741e-07 0
1.01614 -6.45028e-07 0
1.01614 -6.62965e-07 0
1.01614 -6.80536e-07 0
1.01613 -6.97724e-07 0
1.01613 -7.14511e-07 0
1.01613 -7.30883e-07 0
1.01613 -7.46822e-07 0
1.01613 -7.62312e-07 0
1.01613 -7.7734e-07 0
1.01613 -7.91889e-07 0
1.01613 -8.05947e-07 0
1.01613 -8.19498e-07 0
1.01613 -8.3253e-07 0
1.01612 -8.45029e-07 0
1.01612 -8.56983e-07 0
1.01612 -8.6838e-07 0
1.01612 -8.79208e-07 0
1.01612 -8.89458e-07 0
1.01612 -8.99121e-07 0
1.01612 -9.08198e-07 0
1.01612 -9.16737e-07 0
1.01612 -9.25032e-07 0
1.01611 -9.34664e-07 0
1.01611 -9.5399e-07 0
1.01611 -1.02699e-06 0
1.01611 -1.38548e-06 0
1.01611 -3.25317e-06 0
1.01612 -1.3162e-05 0
1.01619 -6.60531e-05 0
1.0161 -0.000373135 0
1.0161 -0.00123662 0
1 -0.00123662 0
1 -0.00743458 0
1.01378 0.00743458 0
1.01743 0.00343247 0
1.01796 0.000915955 0
1.01802 0.000198022 0
1.01802 3.93074e-05 0
1.01802 7.78294e-06 0
1.01802 1.7957e-06 0
1.01802 6.7819e-07 0
1.01802 4.69098e-07 0
1.01802 4.26944e-07 0
1.01802 4.1457e-07 0
1.01802 4.06896e-07 0
1.01802 3.99426e-07 0
1.01802 3.91389e-07 0
1.01803 3.82673e-07 0
1.01803 3.73273e-07 0
1.01803 3.63201e-07 0
1.01803 3.52469e-07 0
1.01803 3.4109e-07 0
1.01803 3.29075e-07 0
1.01803 3.16439e-07 0
1.01803 3.03194e-07 0
1.01803 2.89355e-07 0
1.01803 2.74936e-07 0
1.01803 2.59953e-07 0
1.01803 2.44421e-07 0
1.01803 2.28356e-07 0
1.01803 2.11777e-07 0
1.01803 1.94698e-07 0
1.01803 1.77139e-07 0
1.01803 1.59118e-07 0
1.01803 1.40652e-07 0
1.01803 1.21762e-07 0
1.01803 1.02465e-07 0
1.01803 8.27823e-08 0
1.01803 6.27329e-08 0
1.01803 4.23376e-08 0
1.01803 2.16165e-08 0
1.01803 5.9055e-10 0
1.01803 -2.07194e-08 0
1.01803 -4.22923e-08 0
1.01803 -6.41066e-08 0
1.01803 -8.61409e-08 0
1.01803 -1.08374e-07 0
1.01803 -1.30782e-07 0
1.01803 -1.53345e-07 0
1.01803 -1.76043e-07 0
1.01803 -1.98853e-07 0
1.01803 -2.21742e-07 0
1.01803 -2.44704e-07 0
1.01803 -2.67702e-07 0
1.01803 -2.90724e-07 0
1.01803 -3.13751e-07 0
1.01802 -3.36757e-07 0
1.01802 -3.59716e-07 0
1.01802 -3.82609e-07 0
1.01802 -4.05413e-07 0
1.01802 -4.28107e-07 0
1.01802 -4.5067e-07 0
1.01802 -4.73079e-07 0
1.01802 -4.95313e-07 0
1.01802 -5.17351e-07 0
1.01802 -5.39171e-07 0
1.01802 -5.60752e-07 0
1.01802 -5.82075e-07 0
1.01802 -6.03118e-07 0
1.01802 -6.23861e-07 0
1.01802 -6.44285e-07 0
1.01801 -6.64368e-07 0
1.01801 -6.84093e-07 0
1.01801 -7.0344e-07 0
1.01801 -7.2239e-07 0
1.01801 -7.40925e-07 0
1.01801 -7.59027e-07 0
1.01801 -7.76677e-07 0
1.01801 -7.93859e-07 0
1.01801 -8.10556e-07 0
1.01801 -8.26752e-07 0
1.01801 -8.42429e-07 0
1.018 -8.57574e-07 0
1.018 -8.7217e-07 0
1.018 -8.86204e-07 0
1.018 -8.99661e-07 0
1.018 -9.12528e-07 0
1.018 -9.24792e-07 0
1.018 -9.36441e-07 0
1.018 -9.47463e-07 0
1.018 -9.57849e-07 0
1.01799 -9.67599e-07 0
1.01799 -9.76761e-07 0
1.01799 -9.85628e-07 0
1.01799 -9.95782e-07 0
1.01799 -1.01558e-06 0
1.01799 -1.08891e-06 0
1.01799 -1.44577e-06 0
1.01799 -3.28394e-06 0
1.01798 -1.27552e-05 0
1.01796 -6.0163e-05 0
1.01767 -0.000274611 0
1.01767 -0.000826895 0
1 -0.000826895 0
1 -0.00355409 0
1.01164 0.00355409 0
1.01654 0.00180132 0
1.01774 0.000513728 0
1.01799 0.000116489 0
1.01804 2.39535e-05 0
1.01804 4.9759e-06 0
1.01805 1.31242e-06 0
1.01805 6.24403e-07 0
1.01805 4.94743e-07 0
1.01805 4.6707e-07 0
1.01805 4.57027e-07 0
1.01805 4.49353e-07 0
1.01805 4.41392e-07 0
1.01805 4.32726e-07 0
1.01805 4.23313e-07 0
1.01805 4.13162e-07 0
1.01805 4.02289e-07 0
1.01805 3.90708e-07 0
1.01805 3.78433e-07 0
1.01805 3.65477e-07 0
1.01805 3.51855e-07 0
1.01805 3.3758e-07 0
1.01805 3.2267e-07 0
1.01805 3.07138e-07 0
1.01805 2.91002e-07 0
1.01805 2.74278e-07 0
1.01805 2.56984e-07 0
1.01805 2.39138e-07 0
1.01805 2.20759e-07 0
1.01805 2.01866e-07 0
1.01805 1.82477e-07 0
1.01805 1.62614e-07 0
1.01805 1.42296e-07 0
1.01805 1.21543e-07 0
1.01805 1.00378e-07 0
1.01805 7.88208e-08 0
1.01805 5.68939e-08 0
1.01805 3.46191e-08 0
1.01805 1.20185e-08 0
1.01805 -1.08854e-08 0
1.01805 -3.40699e-08 0
1.01805 -5.7512e-08 0
1.01805 -8.11887e-08 0
1.01805 -1.05077e-07 0
1.01805 -1.29152e-07 0
1.01805 -1.53393e-07 0
1.01805 -1.77775e-07 0
1.01805 -2.02275e-07 0
1.01805 -2.26865e-07 0
1.01805 -2.51528e-07 0
1.01805 -2.76234e-07 0
1.01805 -3.00963e-07 0
1.01805 -3.25692e-07 0
1.01805 -3.50396e-07 0
1.01805 -3.7505e-07 0
1.01805 -3.99632e-07 0
1.01805 -4.24117e-07 0
1.01805 -4.48483e-07 0
1.01805 -4.72707e-07 0
1.01805 -4.96765e-07 0
1.01805 -5.20633e-07 0
1.01805 -5.44289e-07 0
1.01804 -5.67711e-07 0
1.01804 -5.90876e-07 0
1.01804 -6.13761e-07 0
1.01804 -6.36345e-07 0
1.01804 -6.58606e-07 0
1.01804 -6.80522e-07 0
1.01804 -7.02073e-07 0
1.01804 -7.23237e-07 0
1.01804 -7.43994e-07 0
1.01804 -7.64323e-07 0
1.01804 -7.84205e-07 0
1.01804 -8.03621e-07 0
1.01803 -8.22551e-07 0
1.01803 -8.40977e-07 0
1.01803 -8.5888e-07 0
1.01803 -8.76243e-07 0
1.01803 -8.93048e-07 0
1.01803 -9.0928e-07 0
1.01803 -9.24921e-07 0
1.01803 -9.39957e-07 0
1.01803 -9.54372e-07 0
1.01803 -9.68151e-07 0
1.01802 -9.81281e-07 0
1.01802 -9.93749e-07 0
1.01802 -1.00554e-06 0
1.01802 -1.01665e-06 0
1.01802 -1.02706e-06 0
1.01802 -1.03682e-06 0
1.01802 -1.04608e-06 0
1.01802 -1.05582e-06 0
1.01802 -1.0712e-06 0
1.01801 -1.11928e-06 0
1.01801 -1.3413e-06 0
1.01801 -2.4658e-06 0
1.01799 -8.14267e-06 0
1.01792 -3.53322e-05 0
1.01753 -0.000145075 0
1.01753 -0.000414303 0
1 -0.000414303 0
1 -9.34395e-07 0
1.01066 9.34395e-07 0
1.01607 -3.8792e-07 0
1.01761 -2.21579e-07 0
1.01796 1.67203e-07 0
1.01803 3.77468e-07 0
1.01804 4.65309e-07 0
1.01805 4.98371e-07 0
1.01805 5.08459e-07 0
1.01805 5.0894e-07 0
1.01805 5.05123e-07 0
1.01805 4.99106e-07 0
1.01805 4.91728e-07 0
1.01805 4.83325e-07 0
1.01805 4.74037e-07 0
1.01805 4.63926e-07 0
1.01805 4.53024e-07 0
1.01805 4.4135e-07 0
1.01805 4.2892e-07 0
1.01805 4.1575e-07 0
1.01805 4.01853e-07 0
1.01805 3.87246e-07 0
1.01805 3.71943e-07 0
1.01805 3.55961e-07 0
1.01805 3.39317e-07 0
1.01805 3.22028e-07 0
1.01805 3.04113e-07 0
1.01805 2.85591e-07 0
1.01805 2.6648e-07 0
1.01805 2.468e-07 0
1.01805 2.26573e-07 0
1.01805 2.05818e-07 0
1.01805 1.84557e-07 0
1.01805 1.62812e-07 0
1.01805 1.40605e-07 0
1.01805 1.17958e-07 0
1.01805 9.48939e-08 0
1.01805 7.14363e-08 0
1.01805 4.76085e-08 0
1.01805 2.34341e-08 0
1.01805 -1.06285e-09 0
1.01805 -2.58581e-08 0
1.01805 -5.09272e-08 0
1.01805 -7.62455e-08 0
1.01805 -1.01788e-07 0
1.01805 -1.2753e-07 0
1.01805 -1.53447e-07 0
1.01805 -1.79513e-07 0
1.01805 -2.05703e-07 0
1.01805 -2.31992e-07 0
1.01805 -2.58356e-07 0
1.01805 -2.84768e-07 0
1.01805 -3.11203e-07 0
1.01805 -3.37633e-07 0
1.01805 -3.64035e-07 0
1.01805 -3.90383e-07 0
1.01805 -4.16653e-07 0
1.01805 -4.42818e-07 0
1.01805 -4.68856e-07 0
1.01805 -4.9474e-07 0
1.01805 -5.20445e-07 0
1.01805 -5.45947e-07 0
1.01805 -5.71221e-07 0
1.01804 -5.96243e-07 0
1.01804 -6.2099e-07 0
1.01804 -6.45438e-07 0
1.01804 -6.69562e-07 0
1.01804 -6.9334e-07 0
1.01804 -7.16748e-07 0
1.01804 -7.39765e-07 0
1.01804 -7.62367e-07 0
1.01804 -7.84533e-07 0
1.01804 -8.06241e-07 0
1.01804 -8.2747e-07 0
1.01804 -8.48199e-07 0
1.01803 -8.68407e-07 0
1.01803 -8.88076e-07 0
1.01803 -9.07184e-07 0
1.01803 -9.25714e-07 0
1.01803 -9.43647e-07 0
1.01803 -9.60965e-07 0
1.01803 -9.77651e-07 0
1.01803 -9.93688e-07 0
1.01803 -1.00906e-06 0
1.01803 -1.02375e-06 0
1.01802 -1.03775e-06 0
1.01802 -1.05103e-06 0
1.01802 -1.06359e-06 0
1.01802 -1.07542e-06 0
1.01802 -1.0865e-06 0
1.01802 -1.09682e-06 0
1.01802 -1.10636e-06 0
1.01802 -1.11513e-06 0
1.01802 -1.12309e-06 0
1.01801 -1.13021e-06 0
1.01801 -1.13645e-06 0
1.01801 -1.14158e-06 0
1.01798 -1.14563e-06 0
1.01788 -1.14779e-06 0
1.01745 -1.14534e-06 0
1.01745 -1.13684e-06 0
1 -1.13684e-06 0
1 0.00355233 0
1.01066 -0.00355233 0
1.01607 -0.00180209 0
1.01761 -0.000514127 0
1.01796 -0.000116124 0
1.01803 -2.31841e-05 0
1.01804 -4.03927e-06 0
1.01805 -3.13247e-07 0
1.01805 3.93463e-07 0
1.01805 5.23494e-07 0
1.01805 5.433e-07 0
1.01805 5.41219e-07 0
1.01805 5.341e-07 0
1.01805 5.2524e-07 0
1.01805 5.15325e-07 0
1.01805 5.04514e-07 0
1.01805 4.9286e-07 0
1.01805 4.80385e-07 0
1.01805 4.67108e-07 0
1.01805 4.53043e-07 0
1.01805 4.38206e-07 0
1.01805 4.22613e-07 0
1.01805 4.06282e-07 0
1.01805 3.8923e-07 0
1.01805 3.71474e-07 0
1.01805 3.53033e-07 0
1.01805 3.33928e-07 0
1.01805 3.14177e-07 0
1.01805 2.93801e-07 0
1.01805 2.72822e-07 0
1.01805 2.51262e-07 0
1.01805 2.29141e-07 0
1.01805 2.06484e-07 0
1.01805 1.83313e-07 0
1.01805 1.59652e-07 0
1.01805 1.35524e-07 0
1.01805 1.10953e-07 0
1.01805 8.59655e-08 0
1.01805 6.05854e-08 0
1.01805 3.4838e-08 0
1.01805 8.74881e-09 0
1.01805 -1.76564e-08 0
1.01805 -4.43517e-08 0
1.01805 -7.13108e-08 0
1.01805 -9.85073e-08 0
1.01805 -1.25914e-07 0
1.01805 -1.53507e-07 0
1.01805 -1.81256e-07 0
1.01805 -2.09134e-07 0
1.01805 -2.37123e-07 0
1.01805 -2.65187e-07 0
1.01805 -2.93305e-07 0
1.01805 -3.21444e-07 0
1.01805 -3.49575e-07 0
1.01805 -3.77674e-07 0
1.01805 -4.05715e-07 0
1.01805 -4.33672e-07 0
1.01805 -4.61517e-07 0
1.01805 -4.89225e-07 0
1.01805 -5.16767e-07 0
1.01805 -5.44119e-07 0
1.01805 -5.71254e-07 0
1.01805 -5.98145e-07 0
1.01804 -6.24768e-07 0
1.01804 -6.51096e-07 0
1.01804 -6.77105e-07 0
1.01804 -7.02768e-07 0
1.01804 -7.28062e-07 0
1.01804 -7.52962e-07 0
1.01804 -7.77444e-07 0
1.01804 -8.01484e-07 0
1.01804 -8.25058e-07 0
1.01804 -8.48144e-07 0
1.01804 -8.70719e-07 0
1.01804 -8.9276e-07 0
1.01803 -9.14247e-07 0
1.01803 -9.35157e-07 0
1.01803 -9.55471e-07 0
1.01803 -9.75167e-07 0
1.01803 -9.94227e-07 0
1.01803 -1.01263e-06 0
1.01803 -1.03036e-06 0
1.01803 -1.0474e-06 0
1.01803 -1.06373e-06 0
1.01803 -1.07933e-06 0
1.01802 -1.09419e-06 0
1.01802 -1.10829e-06 0
1.01802 -1.12162e-06 0
1.01802 -1.13417e-06 0
1.01802 -1.14591e-06 0
1.01802 -1.1568e-06 0
1.01802 -1.16663e-06 0
1.01802 -1.17441e-06 0
1.01802 -1.17494e-06 0
1.01801 -1.14113e-06 0
1.01801 -9.31606e-07 0
1.01801 1.82631e-07 0
1.01798 5.85131e-06 0
1.01788 3.30363e-05 0
1.01745 0.000142783 0
1.01745 0.000412031 0
1 0.000412031 0
1 0.00743315 0
1.01164 -0.00743315 0
1.01654 -0.00343321 0
1.01774 -0.000916213 0
1.01799 -0.000197565 0
1.01804 -3.84957e-05 0
1.01804 -6.82879e-06 0
1.01805 -7.8946e-07 0
1.01805 3.42416e-07 0
1.01805 5.50171e-07 0
1.01805 5.83786e-07 0
1.01805 5.83769e-07 0
1.01805 5.76544e-07 0
1.01805 5.67153e-07 0
1.01805 5.56593e-07 0
1.01805 5.45079e-07 0
1.01805 5.32672e-07 0
1.01805 5.19397e-07 0
1.01805 5.05271e-07 0
1.01805 4.90311e-07 0
1.01805 4.74535e-07 0
1.01805 4.57958e-07 0
1.01805 4.40599e-07 0
1.01805 4.22476e-07 0
1.01805 4.03609e-07 0
1.01805 3.84017e-07 0
1.01805 3.63721e-07 0
1.01805 3.42743e-07 0
1.01805 3.21103e-07 0
1.01805 2.98826e-07 0
1.01805 2.75932e-07 0
1.01805 2.52447e-07 0
1.01805 2.28394e-07 0
1.01805 2.03797e-07 0
1.01805 1.78682e-07 0
1.01805 1.53074e-07 0
1.01805 1.26998e-07 0
1.01805 1.00481e-07 0
1.01805 7.35494e-08 0
1.01805 4.62297e-08 0
1.01805 1.8549e-08 0
1.01805 -9.4655e-09 0
1.01805 -3.77862e-08 0
1.01805 -6.63853e-08 0
1.01805 -9.52348e-08 0
1.01805 -1.24306e-07 0
1.01805 -1.53574e-07 0
1.01805 -1.83006e-07 0
1.01805 -2.1257e-07 0
1.01805 -2.42257e-07 0
1.01805 -2.7202e-07 0
1.01805 -3.01843e-07 0
1.01805 -3.31688e-07 0
1.01805 -3.61518e-07 0
1.01805 -3.91313e-07 0
1.01805 -4.21046e-07 0
1.01805 -4.50689e-07 0
1.01805 -4.80212e-07 0
1.01805 -5.0959e-07 0
1.01805 -5.38791e-07 0
1.01805 -5.67789e-07 0
1.01805 -5.96556e-07 0
1.01805 -6.25063e-07 0
1.01804 -6.53285e-07 0
1.01804 -6.81194e-07 0
1.01804 -7.08763e-07 0
1.01804 -7.35965e-07 0
1.01804 -7.62775e-07 0
1.01804 -7.89166e-07 0
1.01804 -8.15112e-07 0
1.01804 -8.40588e-07 0
1.01804 -8.65571e-07 0
1.01804 -8.90034e-07 0
1.01804 -9.13954e-07 0
1.01804 -9.37307e-07 0
1.01803 -9.60071e-07 0
1.01803 -9.82223e-07 0
1.01803 -1.00374e-06 0
1.01803 -1.0246e-06 0
1.01803 -1.04479e-06 0
1.01803 -1.06428e-06 0
1.01803 -1.08305e-06 0
1.01803 -1.10109e-06 0
1.01803 -1.11837e-06 0
1.01803 -1.13488e-06 0
1.01802 -1.15061e-06 0
1.01802 -1.16553e-06 0
1.01802 -1.17963e-06 0
1.01802 -1.1929e-06 0
1.01802 -1.2053e-06 0
1.01802 -1.21678e-06 0
1.01802 -1.227e-06 0
1.01802 -1.23437e-06 0
1.01802 -1.2305e-06 0
1.01801 -1.17145e-06 0
1.01801 -8.27163e-07 0
1.01801 1.00078e-06 0
1.01799 1.04636e-05 0
1.01792 5.78662e-05 0
1.01753 0.000272316 0
1.01753 0.000824626 0
1 0.000824626 0
1 0.0120273 0